 
             +---------------------------------------------------+
             |                                                   |
             |                   WANNIER90                       |
             |                                                   |
             +---------------------------------------------------+
             |                                                   |
             |        Welcome to the Maximally-Localized         |
             |        Generalized Wannier Functions code         |
             |            http://www.wannier.org                 |
             |                                                   |
             |  Wannier90 v2.x Authors:                          |
             |    Arash A. Mostofi  (Imperial College London)    |
             |    Giovanni Pizzi    (EPFL)                       |
             |    Ivo Souza         (Universidad del Pais Vasco) |
             |    Jonathan R. Yates (University of Oxford)       |
             |                                                   |
             |  Wannier90 Contributors:                          |
             |    Young-Su Lee       (KIST, S. Korea)            |
             |    Matthew Shelley    (Imperial College London)   |
             |    Nicolas Poilvert   (Penn State University)     |
             |    Raffaello Bianco   (Paris 6 and CNRS)          |
             |    Gabriele Sclauzero (ETH Zurich)                |
             |    David Strubbe (MIT, USA)                       |
             |    Rei Sakuma (Lund University, Sweden)           |
             |    Yusuke Nomura (U. Tokyo, Japan)                |
             |    Takashi Koretsune (Riken, Japan)               |
             |    Yoshiro Nohara (ASMS Co. Ltd., Japan)          |
             |    Ryotaro Arita (Riken, Japan)                   |
             |    Lorenzo Paulatto (UPMC Paris)                  |
             |    Florian Thole (ETH Zurich)                     |
             |    Pablo Garcia Fernandez (Unican, Spain)         |
             |    Dominik Gresch (ETH Zurich)                    |
             |    Samuel Ponce (University of Oxford)            |
             |    Marco Gibertini (EPFL)                         |
             |    Christian Stieger (ETHZ, CH)                   |
             |    Stepan Tsirkin (Universidad del Pais Vasco)    |
             |                                                   |
             |  Wannier77 Authors:                               |
             |    Nicola Marzari    (EPFL)                       |
             |    Ivo Souza         (Universidad del Pais Vasco) |
             |    David Vanderbilt  (Rutgers University)         |
             |                                                   |
             |  Please cite                                      |
             |                                                   |
             |  [ref] "An updated version of Wannier90:          |
             |        A Tool for Obtaining Maximally Localised   |
             |        Wannier Functions", A. A. Mostofi,         |
             |        J. R. Yates, G. Pizzi, Y. S. Lee,          |
             |        I. Souza, D. Vanderbilt and N. Marzari,    |
             |        Comput. Phys. Commun. 185, 2309 (2014)     |
             |        http://dx.doi.org/10.1016/j.cpc.2014.05.003|
             |                                                   |
             |  in any publications arising from the use of      |
             |  this code. For the method please cite            |
             |                                                   |
             |  [ref] "Maximally Localized Generalised Wannier   |
             |         Functions for Composite Energy Bands"     |
             |         N. Marzari and D. Vanderbilt              |
             |         Phys. Rev. B 56 12847 (1997)              |
             |                                                   |
             |  [ref] "Maximally Localized Wannier Functions     |
             |         for Entangled Energy Bands"               |
             |         I. Souza, N. Marzari and D. Vanderbilt    |
             |         Phys. Rev. B 65 035109 (2001)             |
             |                                                   |
             |                                                   |
             | Copyright (c) 1996-2017                           |
             |        Arash A. Mostofi, Jonathan R. Yates,       |
             |        Young-Su Lee, Giovanni Pizzi, Ivo Souza,   |
             |        David Vanderbilt and Nicola Marzari        |
             |                                                   |
             |        Release: 2.1.0   13th January 2017         |
             |                                                   |
             | This program is free software; you can            |
             | redistribute it and/or modify it under the terms  |
             | of the GNU General Public License as published by |
             | the Free Software Foundation; either version 2 of |
             | the License, or (at your option) any later version|
             |                                                   |
             | This program is distributed in the hope that it   |
             | will be useful, but WITHOUT ANY WARRANTY; without |
             | even the implied warranty of MERCHANTABILITY or   |
             | FITNESS FOR A PARTICULAR PURPOSE. See the GNU     |
             | General Public License for more details.          |
             |                                                   |
             | You should have received a copy of the GNU General|
             | Public License along with this program; if not,   |
             | write to the Free Software Foundation, Inc.,      |
             | 675 Mass Ave, Cambridge, MA 02139, USA.           |
             |                                                   |
             +---------------------------------------------------+
             |    Execution started on 15Mar2019 at 15:26:48     |
             +---------------------------------------------------+
 
 ******************************************************************************
 * -> Using CODATA 2006 constant values                                       *
 *    (http://physics.nist.gov/cuu/Constants/index.html)                      *
 * -> Using Bohr value from CODATA                                            *
 ******************************************************************************
 
 
                                    ------
                                    SYSTEM
                                    ------
 
                              Lattice Vectors (Ang)
                    a_1   -10.861999   0.000000  10.861999
                    a_2     0.000000  10.861999  10.861999
                    a_3   -10.861999  10.861999   0.000000
 
                   Unit Cell Volume:    2563.06306  (Ang^3)
 
                        Reciprocal-Space Vectors (Ang^-1)
                    b_1    -0.289228  -0.289228   0.289228
                    b_2     0.289228   0.289228   0.289228
                    b_3    -0.289228   0.289228  -0.289228
  
 *----------------------------------------------------------------------------*
 |   Site       Fractional Coordinate          Cartesian Coordinate (Ang)     |
 +----------------------------------------------------------------------------+
 | Si   1   0.00000   0.00000   0.00000   |    0.00000   0.00000   0.00000    |
 | Si   2   0.00000   0.00000   0.25000   |   -2.71550   2.71550   0.00000    |
 | Si   3   0.00000   0.00000   0.50000   |   -5.43100   5.43100   0.00000    |
 | Si   4   0.00000   0.00000   0.75000   |   -8.14650   8.14650   0.00000    |
 | Si   5   0.00000   0.25000   0.00000   |    0.00000   2.71550   2.71550    |
 | Si   6   0.00000   0.25000   0.25000   |   -2.71550   5.43100   2.71550    |
 | Si   7   0.00000   0.25000   0.50000   |   -5.43100   8.14650   2.71550    |
 | Si   8   0.00000   0.25000   0.75000   |   -8.14650  10.86200   2.71550    |
 | Si   9   0.00000   0.50000   0.00000   |    0.00000   5.43100   5.43100    |
 | Si  10   0.00000   0.50000   0.25000   |   -2.71550   8.14650   5.43100    |
 | Si  11   0.00000   0.50000   0.50000   |   -5.43100  10.86200   5.43100    |
 | Si  12   0.00000   0.50000   0.75000   |   -8.14650  13.57750   5.43100    |
 | Si  13   0.00000   0.75000   0.00000   |    0.00000   8.14650   8.14650    |
 | Si  14   0.00000   0.75000   0.25000   |   -2.71550  10.86200   8.14650    |
 | Si  15   0.00000   0.75000   0.50000   |   -5.43100  13.57750   8.14650    |
 | Si  16   0.00000   0.75000   0.75000   |   -8.14650  16.29300   8.14650    |
 | Si  17   0.25000   0.00000   0.00000   |   -2.71550   0.00000   2.71550    |
 | Si  18   0.25000   0.00000   0.25000   |   -5.43100   2.71550   2.71550    |
 | Si  19   0.25000   0.00000   0.50000   |   -8.14650   5.43100   2.71550    |
 | Si  20   0.25000   0.00000   0.75000   |  -10.86200   8.14650   2.71550    |
 | Si  21   0.25000   0.25000   0.00000   |   -2.71550   2.71550   5.43100    |
 | Si  22   0.25000   0.25000   0.25000   |   -5.43100   5.43100   5.43100    |
 | Si  23   0.25000   0.25000   0.50000   |   -8.14650   8.14650   5.43100    |
 | Si  24   0.25000   0.25000   0.75000   |  -10.86200  10.86200   5.43100    |
 | Si  25   0.25000   0.50000   0.00000   |   -2.71550   5.43100   8.14650    |
 | Si  26   0.25000   0.50000   0.25000   |   -5.43100   8.14650   8.14650    |
 | Si  27   0.25000   0.50000   0.50000   |   -8.14650  10.86200   8.14650    |
 | Si  28   0.25000   0.50000   0.75000   |  -10.86200  13.57750   8.14650    |
 | Si  29   0.25000   0.75000   0.00000   |   -2.71550   8.14650  10.86200    |
 | Si  30   0.25000   0.75000   0.25000   |   -5.43100  10.86200  10.86200    |
 | Si  31   0.25000   0.75000   0.50000   |   -8.14650  13.57750  10.86200    |
 | Si  32   0.25000   0.75000   0.75000   |  -10.86200  16.29300  10.86200    |
 | Si  33   0.50000   0.00000   0.00000   |   -5.43100   0.00000   5.43100    |
 | Si  34   0.50000   0.00000   0.25000   |   -8.14650   2.71550   5.43100    |
 | Si  35   0.50000   0.00000   0.50000   |  -10.86200   5.43100   5.43100    |
 | Si  36   0.50000   0.00000   0.75000   |  -13.57750   8.14650   5.43100    |
 | Si  37   0.50000   0.25000   0.00000   |   -5.43100   2.71550   8.14650    |
 | Si  38   0.50000   0.25000   0.25000   |   -8.14650   5.43100   8.14650    |
 | Si  39   0.50000   0.25000   0.50000   |  -10.86200   8.14650   8.14650    |
 | Si  40   0.50000   0.25000   0.75000   |  -13.57750  10.86200   8.14650    |
 | Si  41   0.50000   0.50000   0.00000   |   -5.43100   5.43100  10.86200    |
 | Si  42   0.50000   0.50000   0.25000   |   -8.14650   8.14650  10.86200    |
 | Si  43   0.50000   0.50000   0.50000   |  -10.86200  10.86200  10.86200    |
 | Si  44   0.50000   0.50000   0.75000   |  -13.57750  13.57750  10.86200    |
 | Si  45   0.50000   0.75000   0.00000   |   -5.43100   8.14650  13.57750    |
 | Si  46   0.50000   0.75000   0.25000   |   -8.14650  10.86200  13.57750    |
 | Si  47   0.50000   0.75000   0.50000   |  -10.86200  13.57750  13.57750    |
 | Si  48   0.50000   0.75000   0.75000   |  -13.57750  16.29300  13.57750    |
 | Si  49   0.75000   0.00000   0.00000   |   -8.14650   0.00000   8.14650    |
 | Si  50   0.75000   0.00000   0.25000   |  -10.86200   2.71550   8.14650    |
 | Si  51   0.75000   0.00000   0.50000   |  -13.57750   5.43100   8.14650    |
 | Si  52   0.75000   0.00000   0.75000   |  -16.29300   8.14650   8.14650    |
 | Si  53   0.75000   0.25000   0.00000   |   -8.14650   2.71550  10.86200    |
 | Si  54   0.75000   0.25000   0.25000   |  -10.86200   5.43100  10.86200    |
 | Si  55   0.75000   0.25000   0.50000   |  -13.57750   8.14650  10.86200    |
 | Si  56   0.75000   0.25000   0.75000   |  -16.29300  10.86200  10.86200    |
 | Si  57   0.75000   0.50000   0.00000   |   -8.14650   5.43100  13.57750    |
 | Si  58   0.75000   0.50000   0.25000   |  -10.86200   8.14650  13.57750    |
 | Si  59   0.75000   0.50000   0.50000   |  -13.57750  10.86200  13.57750    |
 | Si  60   0.75000   0.50000   0.75000   |  -16.29300  13.57750  13.57750    |
 | Si  61   0.75000   0.75000   0.00000   |   -8.14650   8.14650  16.29300    |
 | Si  62   0.75000   0.75000   0.25000   |  -10.86200  10.86200  16.29300    |
 | Si  63   0.75000   0.75000   0.50000   |  -13.57750  13.57750  16.29300    |
 | Si  64   0.75000   0.75000   0.75000   |  -16.29300  16.29300  16.29300    |
 | Si   1   0.06250   0.06250   0.06250   |   -1.35775   1.35775   1.35775    |
 | Si   2   0.06250   0.06250   0.31250   |   -4.07325   4.07325   1.35775    |
 | Si   3   0.06250   0.06250   0.56250   |   -6.78875   6.78875   1.35775    |
 | Si   4   0.06250   0.06250   0.81250   |   -9.50425   9.50425   1.35775    |
 | Si   5   0.06250   0.31250   0.06250   |   -1.35775   4.07325   4.07325    |
 | Si   6   0.06250   0.31250   0.31250   |   -4.07325   6.78875   4.07325    |
 | Si   7   0.06250   0.31250   0.56250   |   -6.78875   9.50425   4.07325    |
 | Si   8   0.06250   0.31250   0.81250   |   -9.50425  12.21975   4.07325    |
 | Si   9   0.06250   0.56250   0.06250   |   -1.35775   6.78875   6.78875    |
 | Si  10   0.06250   0.56250   0.31250   |   -4.07325   9.50425   6.78875    |
 | Si  11   0.06250   0.56250   0.56250   |   -6.78875  12.21975   6.78875    |
 | Si  12   0.06250   0.56250   0.81250   |   -9.50425  14.93525   6.78875    |
 | Si  13   0.06250   0.81250   0.06250   |   -1.35775   9.50425   9.50425    |
 | Si  14   0.06250   0.81250   0.31250   |   -4.07325  12.21975   9.50425    |
 | Si  15   0.06250   0.81250   0.56250   |   -6.78875  14.93525   9.50425    |
 | Si  16   0.06250   0.81250   0.81250   |   -9.50425  17.65075   9.50425    |
 | Si  17   0.31250   0.06250   0.06250   |   -4.07325   1.35775   4.07325    |
 | Si  18   0.31250   0.06250   0.31250   |   -6.78875   4.07325   4.07325    |
 | Si  19   0.31250   0.06250   0.56250   |   -9.50425   6.78875   4.07325    |
 | Si  20   0.31250   0.06250   0.81250   |  -12.21975   9.50425   4.07325    |
 | Si  21   0.31250   0.31250   0.06250   |   -4.07325   4.07325   6.78875    |
 | Si  22   0.31250   0.31250   0.31250   |   -6.78875   6.78875   6.78875    |
 | Si  23   0.31250   0.31250   0.56250   |   -9.50425   9.50425   6.78875    |
 | Si  24   0.31250   0.31250   0.81250   |  -12.21975  12.21975   6.78875    |
 | Si  25   0.31250   0.56250   0.06250   |   -4.07325   6.78875   9.50425    |
 | Si  26   0.31250   0.56250   0.31250   |   -6.78875   9.50425   9.50425    |
 | Si  27   0.31250   0.56250   0.56250   |   -9.50425  12.21975   9.50425    |
 | Si  28   0.31250   0.56250   0.81250   |  -12.21975  14.93525   9.50425    |
 | Si  29   0.31250   0.81250   0.06250   |   -4.07325   9.50425  12.21975    |
 | Si  30   0.31250   0.81250   0.31250   |   -6.78875  12.21975  12.21975    |
 | Si  31   0.31250   0.81250   0.56250   |   -9.50425  14.93525  12.21975    |
 | Si  32   0.31250   0.81250   0.81250   |  -12.21975  17.65075  12.21975    |
 | Si  33   0.56250   0.06250   0.06250   |   -6.78875   1.35775   6.78875    |
 | Si  34   0.56250   0.06250   0.31250   |   -9.50425   4.07325   6.78875    |
 | Si  35   0.56250   0.06250   0.56250   |  -12.21975   6.78875   6.78875    |
 | Si  36   0.56250   0.06250   0.81250   |  -14.93525   9.50425   6.78875    |
 | Si  37   0.56250   0.31250   0.06250   |   -6.78875   4.07325   9.50425    |
 | Si  38   0.56250   0.31250   0.31250   |   -9.50425   6.78875   9.50425    |
 | Si  39   0.56250   0.31250   0.56250   |  -12.21975   9.50425   9.50425    |
 | Si  40   0.56250   0.31250   0.81250   |  -14.93525  12.21975   9.50425    |
 | Si  41   0.56250   0.56250   0.06250   |   -6.78875   6.78875  12.21975    |
 | Si  42   0.56250   0.56250   0.31250   |   -9.50425   9.50425  12.21975    |
 | Si  43   0.56250   0.56250   0.56250   |  -12.21975  12.21975  12.21975    |
 | Si  44   0.56250   0.56250   0.81250   |  -14.93525  14.93525  12.21975    |
 | Si  45   0.56250   0.81250   0.06250   |   -6.78875   9.50425  14.93525    |
 | Si  46   0.56250   0.81250   0.31250   |   -9.50425  12.21975  14.93525    |
 | Si  47   0.56250   0.81250   0.56250   |  -12.21975  14.93525  14.93525    |
 | Si  48   0.56250   0.81250   0.81250   |  -14.93525  17.65075  14.93525    |
 | Si  49   0.81250   0.06250   0.06250   |   -9.50425   1.35775   9.50425    |
 | Si  50   0.81250   0.06250   0.31250   |  -12.21975   4.07325   9.50425    |
 | Si  51   0.81250   0.06250   0.56250   |  -14.93525   6.78875   9.50425    |
 | Si  52   0.81250   0.06250   0.81250   |  -17.65075   9.50425   9.50425    |
 | Si  53   0.81250   0.31250   0.06250   |   -9.50425   4.07325  12.21975    |
 | Si  54   0.81250   0.31250   0.31250   |  -12.21975   6.78875  12.21975    |
 | Si  55   0.81250   0.31250   0.56250   |  -14.93525   9.50425  12.21975    |
 | Si  56   0.81250   0.31250   0.81250   |  -17.65075  12.21975  12.21975    |
 | Si  57   0.81250   0.56250   0.06250   |   -9.50425   6.78875  14.93525    |
 | Si  58   0.81250   0.56250   0.31250   |  -12.21975   9.50425  14.93525    |
 | Si  59   0.81250   0.56250   0.56250   |  -14.93525  12.21975  14.93525    |
 | Si  60   0.81250   0.56250   0.81250   |  -17.65075  14.93525  14.93525    |
 | Si  61   0.81250   0.81250   0.06250   |   -9.50425   9.50425  17.65075    |
 | Si  62   0.81250   0.81250   0.31250   |  -12.21975  12.21975  17.65075    |
 | Si  63   0.81250   0.81250   0.56250   |  -14.93525  14.93525  17.65075    |
 | Si  64   0.81250   0.81250   0.81250   |  -17.65075  17.65075  17.65075    |
 *----------------------------------------------------------------------------*
  
                                ------------
                                K-POINT GRID
                                ------------
  
             Grid size =  1 x  1 x  1      Total points =    1
  
  
 *---------------------------------- MAIN ------------------------------------*
 |  Number of Wannier Functions               :               256             |
 |  Number of input Bloch states              :               256             |
 |  Output verbosity (1=low, 5=high)          :                 1             |
 |  Timing Level (1=low, 5=high)              :                 1             |
 |  Optimisation (0=memory, 3=speed)          :                 3             |
 |  Length Unit                               :               Ang             |
 |  Post-processing setup (write *.nnkp)      :                 F             |
 |  Using Gamma-only branch of algorithms     :                 T             |
 *----------------------------------------------------------------------------*
 *------------------------------- WANNIERISE ---------------------------------*
 |  Total number of iterations                :               100             |
 |  Number of CG steps before reset           :                 5             |
 |  Trial step length for line search         :             2.000             |
 |  Convergence tolerence                     :         0.100E-09             |
 |  Convergence window                        :                -1             |
 |  Iterations between writing output         :                 1             |
 |  Iterations between backing up to disk     :               100             |
 |  Write r^2_nm to file                      :                 F             |
 |  Write xyz WF centres to file              :                 F             |
 |  Write on-site energies <0n|H|0n> to file  :                 F             |
 |  Use guiding centre to control phases      :                 T             |
 |  Use phases for initial projections        :                 F             |
 |  Iterations before starting guiding centres:                26             |
 |  Iterations between using guiding centres  :                 1             |
 *----------------------------------------------------------------------------*
 *-------------------------------- PLOTTING ----------------------------------*
 |  Plotting Hamiltonian in WF basis          :                 T             |
 *----------------------------------------------------------------------------*
 Time to read parameters        0.007 (sec)

 *---------------------------------- K-MESH ----------------------------------*
 +----------------------------------------------------------------------------+
 |                    Distance to Nearest-Neighbour Shells                    |
 |                    ------------------------------------                    |
 |          Shell             Distance (Ang^-1)          Multiplicity         |
 |          -----             -----------------          ------------         |
 |             1                   0.500957                      8            |
 |             2                   0.578456                      6            |
 |             3                   0.818060                     12            |
 |             4                   0.959260                     24            |
 |             5                   1.001915                      8            |
 |             6                   1.156911                      6            |
 |             7                   1.260715                     24            |
 |             8                   1.293466                     24            |
 |             9                   1.416921                     24            |
 |            10                   1.502872                     32            |
 |            11                   1.636120                     12            |
 |            12                   1.711095                     48            |
 +----------------------------------------------------------------------------+
 | The b-vectors are chosen automatically                                     |
 | The following shells are used:   1                                         |
 +----------------------------------------------------------------------------+
 |                        Shell   # Nearest-Neighbours                        |
 |                        -----   --------------------                        |
 |                          1               8                                 |
 +----------------------------------------------------------------------------+
 | Completeness relation is fully satisfied [Eq. (B1), PRB 56, 12847 (1997)]  |
 +----------------------------------------------------------------------------+
 |                  b_k Vectors (Ang^-1) and Weights (Ang^2)                  |
 |                  ----------------------------------------                  |
 |            No.         b_k(x)      b_k(y)      b_k(z)        w_b           |
 |            ---        --------------------------------     --------        |
 |             1        -0.289228    0.289228    0.289228     1.494272        |
 |             2        -0.289228   -0.289228    0.289228     1.494272        |
 |             3         0.289228    0.289228    0.289228     1.494272        |
 |             4        -0.289228    0.289228   -0.289228     1.494272        |
 |             5         0.289228   -0.289228    0.289228     1.494272        |
 |             6        -0.289228   -0.289228   -0.289228     1.494272        |
 |             7         0.289228    0.289228   -0.289228     1.494272        |
 |             8         0.289228   -0.289228   -0.289228     1.494272        |
 +----------------------------------------------------------------------------+
 |                           b_k Directions (Ang^-1)                          |
 |                           -----------------------                          |
 |            No.           x           y           z                         |
 |            ---        --------------------------------                     |
 |             1        -0.289228    0.289228    0.289228                     |
 |             2        -0.289228   -0.289228    0.289228                     |
 |             3         0.289228    0.289228    0.289228                     |
 |             4        -0.289228    0.289228   -0.289228                     |
 +----------------------------------------------------------------------------+
  
 +----------------------------------------------------------------------------+
 |        Gamma-point: number of the b-vectors is reduced by half             |
 +----------------------------------------------------------------------------+
 |                  b_k Vectors (Ang^-1) and Weights (Ang^2)                  |
 |                  ----------------------------------------                  |
 |            No.         b_k(x)      b_k(y)      b_k(z)        w_b           |
 |            ---        --------------------------------     --------        |
 |             1        -0.289228    0.289228    0.289228     2.988545        |
 |             2        -0.289228   -0.289228    0.289228     2.988545        |
 |             3         0.289228    0.289228    0.289228     2.988545        |
 |             4        -0.289228    0.289228   -0.289228     2.988545        |
 +----------------------------------------------------------------------------+
  
 *============================================================================*
 |                              MEMORY ESTIMATE                               |
 |         Maximum RAM allocated during each phase of the calculation         |
 *============================================================================*
 |                            Wannierise:           23.18 Mb                  |
 |                          plot_wannier:           23.18 Mb                  |
 *----------------------------------------------------------------------------*
  
 Starting a new Wannier90 calculation ...

 Time to get kmesh              0.007 (sec)

 Reading overlaps from Si.mmn    :  Created on 15Mar2019 at 15:10: 6

 Reading projections from Si.amn :  Created on 15Mar2019 at 15: 9:56

 Time to read overlaps          0.342 (sec)

 done

 
 *------------------------------- WANNIERISE ---------------------------------*
 +--------------------------------------------------------------------+<-- CONV
 | Iter  Delta Spread     RMS Gradient      Spread (Ang^2)      Time  |<-- CONV
 +--------------------------------------------------------------------+<-- CONV
 
 ------------------------------------------------------------------------------
 Initial State
  WF centre and spread    1  (  0.164059,  0.164061,  0.164061 )     2.76650006
  WF centre and spread    2  (  0.164058, -0.164059, -0.164059 )     2.76650277
  WF centre and spread    3  ( -0.164064,  0.164063, -0.164062 )     2.76649696
  WF centre and spread    4  ( -0.164064, -0.164062,  0.164062 )     2.76649746
  WF centre and spread    5  ( -2.551440,  2.879559,  0.164059 )     2.76650615
  WF centre and spread    6  ( -2.551436,  2.551434, -0.164066 )     2.76649867
  WF centre and spread    7  ( -2.879560,  2.879559, -0.164062 )     2.76650472
  WF centre and spread    8  ( -2.879560,  2.551438,  0.164059 )     2.76650511
  WF centre and spread    9  (  0.164060,  0.164058, -5.266941 )    32.86266610
  WF centre and spread   10  ( -5.266936,  5.266935, -0.164065 )     2.76651134
  WF centre and spread   11  (  5.266940, -5.266941, -0.164062 )     2.76651673
  WF centre and spread   12  ( -0.164059, -0.164061, -5.266941 )    32.86266567
  WF centre and spread   13  (  2.879559, -2.551439,  0.164061 )     2.76651756
  WF centre and spread   14  (  2.879557, -2.879558, -0.164059 )     2.76651992
  WF centre and spread   15  (  2.551436, -2.551438, -0.164062 )     2.76651430
  WF centre and spread   16  (  2.551437, -2.879561,  0.164061 )     2.76651531
  WF centre and spread   17  (  0.164055,  2.879554,  2.879554 )     2.76652101
  WF centre and spread   18  (  0.164062,  2.551434,  2.551435 )     2.76650904
  WF centre and spread   19  ( -0.164062,  2.879559,  2.551437 )     2.76651264
  WF centre and spread   20  ( -0.164064,  2.551435,  2.879561 )     2.76650992
  WF centre and spread   21  (  2.879557,  0.164055, -2.551445 )    32.86267846
  WF centre and spread   22  ( -2.551436,  5.266934,  2.551434 )     2.76651597
  WF centre and spread   23  (  2.551438,  0.164060, -2.879563 )    32.86267018
  WF centre and spread   24  (  2.551439, -0.164061, -2.551442 )    32.86267180
  WF centre and spread   25  (  0.164058,  2.879557, -2.551443 )    32.86268019
  WF centre and spread   26  (  0.164061,  2.551438, -2.879563 )    32.86267365
  WF centre and spread   27  (  5.266937, -2.551438,  2.551436 )     2.76652138
  WF centre and spread   28  ( -0.164060,  2.551440, -2.551442 )    32.86267710
  WF centre and spread   29  (  2.879554,  0.164057,  2.879556 )     2.76652185
  WF centre and spread   30  (  2.879558, -0.164060,  2.551439 )     2.76651765
  WF centre and spread   31  (  2.551434,  0.164063,  2.551435 )     2.76651132
  WF centre and spread   32  (  2.551436, -0.164063,  2.879561 )     2.76651359
  WF centre and spread   33  (  0.164059, -5.266942, -5.266940 )     2.76652925
  WF centre and spread   34  (  0.164061,  5.266937,  5.266939 )     2.76652501
  WF centre and spread   35  (  5.266941,  0.164057, -0.164058 )    32.86268216
  WF centre and spread   36  (  5.266937, -0.164064,  0.164063 )    32.86267428
  WF centre and spread   37  ( -2.551439, -2.551438, -5.266939 )     2.76652953
  WF centre and spread   38  (  2.879560,  2.551441, -0.164059 )    32.86268550
  WF centre and spread   39  (  2.551440,  2.879560, -0.164060 )    32.86268447
  WF centre and spread   40  (  2.551441,  2.551441,  0.164060 )    32.86268568
  WF centre and spread   41  ( -5.266938,  0.164063, -5.266937 )     2.76652324
  WF centre and spread   42  (  0.164058,  5.266943, -0.164057 )    32.86268117
  WF centre and spread   43  (  5.266938,  0.164063,  5.266939 )     2.76652404
  WF centre and spread   44  ( -0.164060,  5.266941,  0.164060 )    32.86267894
  WF centre and spread   45  ( -2.551441, -2.551441,  0.164060 )    31.66188507
  WF centre and spread   46  (  2.879560,  2.551438,  5.266940 )     2.76652204
  WF centre and spread   47  (  2.551440,  2.879559,  5.266941 )     2.76652315
  WF centre and spread   48  (  2.551437,  2.551437,  5.595063 )     2.76651854
  WF centre and spread   49  (  0.164065, -2.551434, -2.551433 )     2.76651544
  WF centre and spread   50  (  0.164057, -2.879554, -2.879553 )     2.76652930
  WF centre and spread   51  ( -0.164059, -2.551439, -2.879557 )     2.76652479
  WF centre and spread   52  ( -0.164061, -2.879560, -2.551436 )     2.76652072
  WF centre and spread   53  ( -2.551431,  0.164070, -2.551430 )     2.76650163
  WF centre and spread   54  ( -2.551441, -0.164055, -2.879555 )     2.76651859
  WF centre and spread   55  ( -2.879558,  0.164062, -2.879556 )     2.76651489
  WF centre and spread   56  ( -2.879558, -0.164057, -2.551437 )     2.76651441
  WF centre and spread   57  ( -5.266934,  2.879565, -2.551434 )     2.76650871
  WF centre and spread   58  ( -5.266937,  2.551439, -2.879559 )     2.76651495
  WF centre and spread   59  ( -0.164056, -2.551441,  2.551443 )    31.66188123
  WF centre and spread   60  ( -5.595058,  2.551440, -2.551438 )     2.76651543
  WF centre and spread   61  (  2.879563, -5.266938, -2.551436 )     2.76652003
  WF centre and spread   62  ( -2.551439, -0.164061,  2.551441 )    31.66188348
  WF centre and spread   63  (  2.551443, -5.266943, -2.879556 )     2.76652766
  WF centre and spread   64  (  2.551439, -5.595062, -2.551437 )     2.76652092
  WF centre and spread   65  ( -2.551438,  0.164061,  2.879560 )     2.76650753
  WF centre and spread   66  ( -2.551436, -0.164063,  2.551436 )     2.76650402
  WF centre and spread   67  ( -2.879560,  0.164060,  2.551438 )     2.76650804
  WF centre and spread   68  ( -2.879558, -0.164059,  2.879557 )     2.76651097
  WF centre and spread   69  (  0.164059, -2.551441, -2.551442 )    32.86266597
  WF centre and spread   70  ( -5.266937,  2.551436,  2.551435 )     2.76651148
  WF centre and spread   71  ( -0.164061, -2.551440, -2.879561 )    32.86266390
  WF centre and spread   72  ( -0.164060, -2.879561, -2.551441 )    32.86266437
  WF centre and spread   73  ( -2.551443,  0.164057, -2.551442 )    32.86267001
  WF centre and spread   74  ( -2.551441, -0.164061, -2.879561 )    32.86266527
  WF centre and spread   75  (  2.551436, -5.266939,  2.551437 )     2.76651443
  WF centre and spread   76  ( -2.879563, -0.164063, -2.551439 )    32.86266236
  WF centre and spread   77  (  0.164059, -2.551439,  2.879559 )     2.76650953
  WF centre and spread   78  (  0.164059, -2.879559,  2.551439 )     2.76650989
  WF centre and spread   79  ( -0.164064, -2.551436,  2.551436 )     2.76650411
  WF centre and spread   80  ( -0.164062, -2.879560,  2.879560 )     2.76650854
  WF centre and spread   81  (  2.879559, -2.551443,  0.164058 )    32.86266653
  WF centre and spread   82  ( -2.551436,  2.551435,  5.266937 )     2.76651152
  WF centre and spread   83  (  2.551441, -2.551443, -0.164059 )    32.86266639
  WF centre and spread   84  (  2.551438, -2.879564,  0.164062 )    32.86265925
  WF centre and spread   85  (  0.164057,  0.164056,  0.164057 )    32.86268430
  WF centre and spread   86  (  0.164061, -0.164063, -0.164063 )    32.86267541
  WF centre and spread   87  ( -0.164060,  0.164058, -0.164060 )    32.86267955
  WF centre and spread   88  ( -0.164062, -0.164063,  0.164061 )    32.86267587
  WF centre and spread   89  ( -2.551444,  2.879557,  0.164057 )    32.86267833
  WF centre and spread   90  ( -2.551443,  2.551441, -0.164060 )    32.86267553
  WF centre and spread   91  (  2.551434, -2.551436,  5.266935 )     2.76651737
  WF centre and spread   92  ( -2.879564,  2.551438,  0.164061 )    32.86266965
  WF centre and spread   93  (  0.164057,  0.164058,  5.595057 )     2.76651598
  WF centre and spread   94  (  0.164060, -0.164061,  5.266939 )     2.76651256
  WF centre and spread   95  ( -0.164064,  0.164062,  5.266937 )     2.76650975
  WF centre and spread   96  ( -0.164063, -0.164062,  5.595061 )     2.76651070
  WF centre and spread   97  ( -2.551438, -5.266939, -2.551437 )     2.76651804
  WF centre and spread   98  (  2.879563, -0.164062,  2.551440 )    32.86266716
  WF centre and spread   99  (  2.551444,  0.164056,  2.551444 )    32.86267535
  WF centre and spread  100  (  2.551438, -0.164063,  2.879564 )    32.86266476
  WF centre and spread  101  ( -5.266937, -2.551436, -2.551437 )     2.76652530
  WF centre and spread  102  (  0.164059,  2.551443,  2.551442 )    32.86268493
  WF centre and spread  103  ( -0.164059,  2.879561,  2.551441 )    32.86268268
  WF centre and spread  104  ( -0.164060,  2.551441,  2.879561 )    32.86268186
  WF centre and spread  105  ( -7.982439,  0.164062, -2.551438 )     2.76651726
  WF centre and spread  106  ( -2.551442,  5.266942,  2.551442 )    32.86267246
  WF centre and spread  107  (  2.551437,  0.164064,  7.982438 )     2.76651570
  WF centre and spread  108  ( -2.879561,  5.266940,  2.879562 )    32.86266724
  WF centre and spread  109  (  0.164060, -7.982440, -2.551439 )     2.76651487
  WF centre and spread  110  (  0.164061,  2.551439,  7.982440 )     2.76651360
  WF centre and spread  111  (  5.266940, -2.551441,  2.551441 )    32.86266312
  WF centre and spread  112  (  5.266937, -2.879564,  2.879564 )    32.86265695
  WF centre and spread  113  ( -2.551432, -2.551433,  0.164067 )     2.76650304
  WF centre and spread  114  ( -2.551438, -2.879558, -0.164059 )     2.76651347
  WF centre and spread  115  ( -2.879557, -2.551439, -0.164058 )     2.76651422
  WF centre and spread  116  ( -2.879557, -2.879556,  0.164061 )     2.76651476
  WF centre and spread  117  ( -5.266933,  0.164067,  0.164065 )     2.76650840
  WF centre and spread  118  ( -5.266938, -0.164059, -0.164060 )     2.76651577
  WF centre and spread  119  ( -5.595058,  0.164062, -0.164060 )     2.76651592
  WF centre and spread  120  ( -5.595055, -0.164056,  0.164058 )     2.76652028
  WF centre and spread  121  ( -2.551438, -2.551438, -5.266938 )    32.86266412
  WF centre and spread  122  ( -7.982439,  2.551439, -0.164060 )     2.76651598
  WF centre and spread  123  (  2.551440, -7.982439, -0.164060 )     2.76651626
  WF centre and spread  124  ( -2.879560, -2.879561, -5.266939 )    32.86266582
  WF centre and spread  125  (  0.164062, -5.266938,  0.164063 )     2.76651179
  WF centre and spread  126  (  0.164059, -5.595058, -0.164058 )     2.76651652
  WF centre and spread  127  ( -0.164060, -5.266940, -0.164059 )     2.76651538
  WF centre and spread  128  ( -0.164062, -5.595061,  0.164063 )     2.76651227
  WF centre and spread  129  (  0.164063, -5.266937,  0.164062 )    32.86265744
  WF centre and spread  130  ( -5.266938, -0.164062,  5.266938 )     2.76651231
  WF centre and spread  131  ( -0.164059, -5.266940, -0.164060 )    32.86266293
  WF centre and spread  132  (  5.266941, -0.164060, -5.266940 )     2.76651517
  WF centre and spread  133  ( -2.551441, -2.551441,  0.164059 )    32.86266590
  WF centre and spread  134  ( -2.551441, -2.879561, -0.164061 )    32.86266432
  WF centre and spread  135  ( -2.879562, -2.551439, -0.164062 )    32.86266148
  WF centre and spread  136  (  2.551437,  2.551438, -5.266939 )     2.76651369
  WF centre and spread  137  ( -5.266941,  0.164059,  0.164059 )    32.86266059
  WF centre and spread  138  ( -5.266941, -0.164060, -0.164060 )    32.86266010
  WF centre and spread  139  ( -0.164063, -5.266939,  5.266938 )     2.76651057
  WF centre and spread  140  ( -0.164064,  5.266937, -5.266937 )     2.76650890
  WF centre and spread  141  ( -2.551437, -2.551438,  5.595062 )     2.76651034
  WF centre and spread  142  ( -2.551438, -2.879561,  5.266938 )     2.76651082
  WF centre and spread  143  ( -2.879560, -2.551440,  5.266940 )     2.76651305
  WF centre and spread  144  (  2.551440,  2.551439,  0.164060 )    31.66187900
  WF centre and spread  145  (  0.164060, -2.551442,  2.879559 )    32.86266695
  WF centre and spread  146  (  0.164063, -2.879564,  2.551437 )    32.86266071
  WF centre and spread  147  ( -0.164058, -2.551442,  2.551441 )    32.86266852
  WF centre and spread  148  (  5.266939,  2.551437, -2.551438 )     2.76651570
  WF centre and spread  149  ( -2.551445,  0.164056,  2.879556 )    32.86267829
  WF centre and spread  150  ( -2.551442, -0.164061,  2.551440 )    32.86267240
  WF centre and spread  151  ( -2.879563,  0.164061,  2.551438 )    32.86266862
  WF centre and spread  152  (  2.551434,  5.266935, -2.551437 )     2.76651680
  WF centre and spread  153  ( -5.266943,  2.879558,  2.879558 )    32.86266612
  WF centre and spread  154  ( -5.266942,  2.551440,  2.551440 )    32.86266338
  WF centre and spread  155  ( -0.164065, -2.551437,  7.982436 )     2.76651072
  WF centre and spread  156  ( -0.164064,  7.982437, -2.551438 )     2.76651129
  WF centre and spread  157  (  2.879560, -5.266940,  2.879560 )    32.86265631
  WF centre and spread  158  ( -2.551437, -0.164062,  7.982437 )     2.76650843
  WF centre and spread  159  (  2.551440, -5.266940,  2.551439 )    32.86265585
  WF centre and spread  160  (  7.982439, -0.164062, -2.551439 )     2.76650997
  WF centre and spread  161  ( -5.266937, -5.266939,  0.164062 )     2.76652199
  WF centre and spread  162  (  0.164063, -0.164062,  5.266938 )    32.86267039
  WF centre and spread  163  ( -0.164057,  0.164058,  5.266942 )    32.86267767
  WF centre and spread  164  (  5.266941,  5.266939,  0.164061 )     2.76652396
  WF centre and spread  165  ( -7.982441, -2.551439,  0.164060 )     2.76652748
  WF centre and spread  166  ( -2.551441,  2.551442,  5.266940 )    32.86268106
  WF centre and spread  167  ( -2.879563,  2.879563,  5.266937 )    32.86267501
  WF centre and spread  168  (  2.551439,  7.982441,  0.164060 )     2.76652746
  WF centre and spread  169  ( -5.266940, -5.266939, -5.266940 )    32.86266347
  WF centre and spread  170  ( -5.266939,  5.266940,  5.266939 )    32.86266281
  WF centre and spread  171  (  5.266936, -5.266935,  5.266936 )    32.86265697
  WF centre and spread  172  (  5.266939,  5.266940, -5.266940 )    32.86266346
  WF centre and spread  173  ( -2.551438, -7.982439,  0.164061 )     2.76651330
  WF centre and spread  174  (  2.879563, -2.879562,  5.266937 )    32.86265751
  WF centre and spread  175  (  2.551441, -2.551440,  5.266939 )    32.86266211
  WF centre and spread  176  (  7.982441,  2.551440,  0.164060 )     2.76651489
  WF centre and spread  177  ( -5.266933, -2.551434,  2.879565 )     2.76651616
  WF centre and spread  178  ( -5.266936, -2.879559,  2.551439 )     2.76652179
  WF centre and spread  179  ( -5.595057, -2.551440,  2.551441 )     2.76652536
  WF centre and spread  180  ( -0.164055,  2.551444, -2.551442 )    31.66188757
  WF centre and spread  181  ( -2.551437, -5.266935, -2.551437 )    32.86266816
  WF centre and spread  182  ( -7.982439, -0.164057,  2.551440 )     2.76652258
  WF centre and spread  183  ( -2.879561, -5.266936, -2.879562 )    32.86266970
  WF centre and spread  184  (  2.551442, -0.164057, -7.982442 )     2.76652469
  WF centre and spread  185  ( -5.266937, -2.551437, -2.551438 )    32.86265959
  WF centre and spread  186  ( -5.266939, -2.879559, -2.879560 )    32.86266378
  WF centre and spread  187  ( -0.164061, -7.982437,  2.551438 )     2.76651246
  WF centre and spread  188  ( -0.164060,  2.551441, -7.982439 )     2.76651534
  WF centre and spread  189  ( -2.551435, -5.266936,  2.879564 )     2.76651077
  WF centre and spread  190  ( -2.551437, -5.595060,  2.551439 )     2.76651471
  WF centre and spread  191  ( -2.879558, -5.266940,  2.551441 )     2.76651788
  WF centre and spread  192  (  2.551442, -0.164058, -2.551440 )    31.66188197
  WF centre and spread  193  (  2.879561,  0.164062, -2.551437 )     2.76651239
  WF centre and spread  194  (  2.879557, -0.164059, -2.879558 )     2.76651711
  WF centre and spread  195  (  2.551438,  0.164061, -2.879561 )     2.76651342
  WF centre and spread  196  (  2.551438, -0.164061, -2.551438 )     2.76651259
  WF centre and spread  197  (  0.164059,  2.879561, -2.551438 )     2.76650555
  WF centre and spread  198  (  0.164057,  2.551441, -2.879558 )     2.76650870
  WF centre and spread  199  ( -0.164064,  2.879561, -2.879561 )     2.76650372
  WF centre and spread  200  ( -0.164065,  2.551436, -2.551436 )     2.76650032
  WF centre and spread  201  ( -2.551438,  5.595060, -2.551438 )     2.76650471
  WF centre and spread  202  ( -2.551437,  5.266937, -2.879562 )     2.76650325
  WF centre and spread  203  (  2.551440,  0.164058,  2.551440 )    31.66187550
  WF centre and spread  204  ( -2.879561,  5.266937, -2.551438 )     2.76650454
  WF centre and spread  205  (  5.595064, -2.551438, -2.551437 )     2.76651274
  WF centre and spread  206  (  0.164063,  2.551438,  2.551438 )    31.66187887
  WF centre and spread  207  (  5.266942, -2.551441, -2.879559 )     2.76651814
  WF centre and spread  208  (  5.266941, -2.879560, -2.551440 )     2.76651767
  WF centre and spread  209  (  2.879554,  2.879555,  0.164056 )     2.76652379
  WF centre and spread  210  (  2.879559,  2.551438, -0.164062 )     2.76651672
  WF centre and spread  211  (  2.551436,  2.879560, -0.164062 )     2.76651517
  WF centre and spread  212  (  2.551435,  2.551435,  0.164063 )     2.76651282
  WF centre and spread  213  (  0.164054,  5.595054,  0.164054 )     2.76652218
  WF centre and spread  214  (  0.164060,  5.266937, -0.164064 )     2.76651145
  WF centre and spread  215  ( -0.164065,  5.595061, -0.164064 )     2.76651027
  WF centre and spread  216  ( -0.164064,  5.266936,  0.164061 )     2.76651139
  WF centre and spread  217  (  2.879559,  2.879558, -5.266943 )    32.86266420
  WF centre and spread  218  ( -2.551436,  7.982436, -0.164065 )     2.76650877
  WF centre and spread  219  (  7.982437, -2.551438, -0.164064 )     2.76651043
  WF centre and spread  220  (  2.551441,  2.551440, -5.266942 )    32.86266294
  WF centre and spread  221  (  5.595059,  0.164059,  0.164058 )     2.76651825
  WF centre and spread  222  (  5.595062, -0.164063, -0.164063 )     2.76651408
  WF centre and spread  223  (  5.266939,  0.164061, -0.164063 )     2.76651513
  WF centre and spread  224  (  5.266941, -0.164060,  0.164058 )     2.76651836
  WF centre and spread  225  ( -2.551442,  0.164058, -2.551442 )    31.66188975
  WF centre and spread  226  (  2.879562,  5.266937,  2.551438 )     2.76652509
  WF centre and spread  227  (  2.551440,  5.595059,  2.551440 )     2.76652804
  WF centre and spread  228  (  2.551439,  5.266938,  2.879561 )     2.76652605
  WF centre and spread  229  (  0.164058, -2.551441, -7.982442 )     2.76652816
  WF centre and spread  230  (  0.164061,  7.982439,  2.551438 )     2.76652449
  WF centre and spread  231  (  5.266936,  2.879563, -2.879564 )    32.86267252
  WF centre and spread  232  (  5.266940,  2.551442, -2.551442 )    32.86268025
  WF centre and spread  233  ( -2.551438,  0.164062, -7.982440 )     2.76651959
  WF centre and spread  234  (  2.879562,  5.266940, -2.879561 )    32.86266883
  WF centre and spread  235  (  7.982438,  0.164064,  2.551436 )     2.76651720
  WF centre and spread  236  (  2.551443,  5.266943, -2.551443 )    32.86267551
  WF centre and spread  237  (  0.164061, -2.551439, -2.551439 )    31.66188452
  WF centre and spread  238  (  5.595062,  2.551438,  2.551439 )     2.76652013
  WF centre and spread  239  (  5.266941,  2.879560,  2.551440 )     2.76652274
  WF centre and spread  240  (  5.266941,  2.551440,  2.879559 )     2.76652342
  WF centre and spread  241  (  2.879565, -2.551435, -5.266935 )     2.76652296
  WF centre and spread  242  ( -2.551439,  2.551442, -0.164058 )    31.66188828
  WF centre and spread  243  (  2.551442, -2.551440, -5.595058 )     2.76653082
  WF centre and spread  244  (  2.551442, -2.879557, -5.266940 )     2.76653155
  WF centre and spread  245  (  0.164065,  0.164067, -5.266935 )     2.76651545
  WF centre and spread  246  (  0.164058, -0.164055, -5.595056 )     2.76652695
  WF centre and spread  247  ( -0.164061,  0.164064, -5.595060 )     2.76652003
  WF centre and spread  248  ( -0.164059, -0.164057, -5.266940 )     2.76652448
  WF centre and spread  249  ( -2.551434,  2.879566, -5.266933 )     2.76650794
  WF centre and spread  250  ( -2.551439,  2.551442, -5.595057 )     2.76651743
  WF centre and spread  251  (  2.551441, -2.551439, -0.164057 )    31.66188087
  WF centre and spread  252  ( -2.879558,  2.551441, -5.266939 )     2.76651678
  WF centre and spread  253  (  0.164066,  0.164064,  0.164066 )    31.66187742
  WF centre and spread  254  (  0.164064, -0.164061, -0.164060 )    31.66188176
  WF centre and spread  255  ( -0.164055,  0.164058, -0.164056 )    31.66188664
  WF centre and spread  256  ( -0.164057, -0.164059,  0.164061 )    31.66188395
  Sum of centres and spreads (  0.000000,  0.000000,  0.000000 )  3578.24613678
 
      0     0.358E+04                      3578.2461367849       0.36  <-- CONV
        O_D=   2870.7999103 O_OD=    332.9347345 O_TOT=   3578.2461368 <-- SPRD
 ------------------------------------------------------------------------------
 Cycle:      1
  WF centre and spread    1  (  0.669000, -0.675722,  0.676646 )     1.66743651
  WF centre and spread    2  ( -0.704149,  0.638467,  0.597620 )     1.51383534
  WF centre and spread    3  ( -0.625700, -0.636847, -0.636254 )     1.89087566
  WF centre and spread    4  (  0.682323,  0.651806, -0.664539 )     1.72412679
  WF centre and spread    5  ( -2.047350,  2.040585,  0.678004 )     1.67544346
  WF centre and spread    6  ( -3.418968,  3.357634,  0.600134 )     1.51363447
  WF centre and spread    7  ( -3.342576,  2.076037, -0.638769 )     1.88055058
  WF centre and spread    8  ( -2.033170,  3.367026, -0.664480 )     1.72448431
  WF centre and spread    9  ( -4.763172,  4.756384,  0.678228 )     1.67698743
  WF centre and spread   10  (  4.727779, -4.789131,  0.600261 )     1.51489041
  WF centre and spread   11  ( -0.627040, -0.639478,  4.792259 )    31.38459065
  WF centre and spread   12  (  0.682360,  0.651487,  4.766543 )    31.22644278
  WF centre and spread   13  (  3.384410, -3.390730,  0.677579 )     1.67950802
  WF centre and spread   14  (  2.013349, -2.074068,  0.602524 )     1.51910609
  WF centre and spread   15  (  2.088215, -3.355592, -0.639273 )     1.87830065
  WF centre and spread   16  (  3.397699, -2.064079, -0.664522 )     1.72596340
  WF centre and spread   17  ( -0.701272,  3.376715,  3.348050 )     1.57596321
  WF centre and spread   18  (  0.601770,  1.992161,  3.297928 )     1.55558227
  WF centre and spread   19  ( -0.580991,  2.115502,  2.131316 )     2.14233726
  WF centre and spread   20  (  0.667760,  3.383376,  2.044446 )     1.73895970
  WF centre and spread   21  ( -2.045876,  4.756537,  3.394297 )     1.67771551
  WF centre and spread   22  (  2.014576,  0.646855, -2.111077 )    31.05235662
  WF centre and spread   23  ( -3.347568,  4.787632,  2.076457 )     1.89615631
  WF centre and spread   24  ( -2.033959,  6.082265,  2.051133 )     1.72877438
  WF centre and spread   25  (  0.669335,  2.041339, -2.036655 )    31.16425503
  WF centre and spread   26  (  4.730363, -2.069009,  3.320020 )     1.51159992
  WF centre and spread   27  (  4.798978, -3.358825,  2.076515 )     1.89642088
  WF centre and spread   28  (  6.112558, -2.064252,  2.051142 )     1.72883093
  WF centre and spread   29  (  3.385719, -0.674630,  3.393721 )     1.68100831
  WF centre and spread   30  (  2.015945,  0.646038,  3.322341 )     1.51603839
  WF centre and spread   31  (  2.083125, -0.643923,  2.076036 )     1.89450664
  WF centre and spread   32  (  3.396923,  0.651187,  2.051073 )     1.73012540
  WF centre and spread   33  ( -0.701311, -4.769824, -4.798516 )     1.57730315
  WF centre and spread   34  ( -4.829469, -0.723470,  0.582190 )    30.99608285
  WF centre and spread   35  ( -0.581235,  4.831066,  4.847372 )     2.14699787
  WF centre and spread   36  ( -4.763259,  0.667851, -0.671075 )    31.25458143
  WF centre and spread   37  ( -2.046172, -3.390132, -4.752503 )     1.67928264
  WF centre and spread   38  ( -3.416487, -2.068723, -4.826640 )     1.51148378
  WF centre and spread   39  (  2.083357,  2.072035, -0.638579 )    31.38956934
  WF centre and spread   40  ( -2.033952, -2.064255, -6.095390 )     1.72890574
  WF centre and spread   41  ( -4.761961, -0.674322, -4.752456 )     1.68051596
  WF centre and spread   42  ( -0.700699, -4.784587,  0.604451 )    30.96178814
  WF centre and spread   43  (  4.798902, -0.643419,  4.792476 )     1.89949445
  WF centre and spread   44  (  0.681561, -4.779775, -0.664381 )    31.23125818
  WF centre and spread   45  ( -3.415877, -2.054392,  0.634419 )    31.05724110
  WF centre and spread   46  ( -2.113111, -3.437858,  0.584597 )    31.00043167
  WF centre and spread   47  (  2.132326,  2.115142,  4.844807 )     2.13525081
  WF centre and spread   48  ( -2.048101, -2.048076, -0.670813 )    31.25790014
  WF centre and spread   49  ( -0.703506, -3.349485, -3.374780 )     1.60115547
  WF centre and spread   50  (  0.597253, -3.296015, -1.990205 )     1.57123437
  WF centre and spread   51  ( -0.581174, -2.131042, -2.118243 )     2.15181498
  WF centre and spread   52  (  0.667857, -2.043289, -3.382038 )     1.73989543
  WF centre and spread   53  ( -3.418801, -0.633811, -3.374975 )     1.59904053
  WF centre and spread   54  ( -2.120234, -0.577696, -1.989563 )     1.57532545
  WF centre and spread   55  ( -3.295696,  0.583095, -2.119379 )     2.15918333
  WF centre and spread   56  ( -2.047973,  0.671851, -3.381601 )     1.74341087
  WF centre and spread   57  ( -0.703562, -3.348684,  2.055677 )    31.06363373
  WF centre and spread   58  ( -4.836572,  2.138240, -1.989591 )     1.57512226
  WF centre and spread   59  ( -0.579740, -2.132901,  3.311732 )    31.65382983
  WF centre and spread   60  (  0.667545, -2.043643,  2.049383 )    31.25900513
  WF centre and spread   61  ( -3.419390, -0.632517,  2.056126 )    31.06426648
  WF centre and spread   62  ( -2.117184, -0.580402,  3.439588 )    31.00884537
  WF centre and spread   63  (  2.133895, -4.846573, -2.117439 )     2.15975806
  WF centre and spread   64  ( -2.048436,  0.671510,  2.049678 )    31.26252678
  WF centre and spread   65  ( -3.418783,  0.658691,  3.347627 )     1.57441036
  WF centre and spread   66  ( -2.122531, -0.727805,  3.290098 )     1.56753391
  WF centre and spread   67  ( -3.287695, -0.595567,  2.137355 )     2.13690750
  WF centre and spread   68  ( -2.050020,  0.667343,  2.042850 )     1.73630436
  WF centre and spread   69  ( -4.765789,  2.041333,  3.392842 )     1.69542409
  WF centre and spread   70  ( -0.702938, -2.073929, -2.114684 )    31.05345146
  WF centre and spread   71  ( -6.058816,  2.074965,  2.077718 )     1.88232089
  WF centre and spread   72  ( -4.750318,  3.363347,  2.052039 )     1.72691677
  WF centre and spread   73  ( -2.050599, -0.673863, -2.038118 )    31.18090048
  WF centre and spread   74  (  2.012841, -4.789812,  3.316390 )     1.51080277
  WF centre and spread   75  (  2.087742, -6.071499,  2.077799 )     1.88271866
  WF centre and spread   76  (  3.396183, -4.783164,  2.052051 )     1.72690636
  WF centre and spread   77  (  0.665864, -3.389881,  3.392324 )     1.69824584
  WF centre and spread   78  ( -0.701552, -2.074720,  3.318719 )     1.51541354
  WF centre and spread   79  ( -0.627981, -3.356628,  2.077263 )     1.88042201
  WF centre and spread   80  (  0.680342, -2.067393,  2.051961 )     1.72884708
  WF centre and spread   81  (  2.013277, -2.054909,  0.633494 )    31.09723093
  WF centre and spread   82  ( -2.118232,  1.989954,  6.009342 )     1.56355381
  WF centre and spread   83  ( -3.293243,  2.116705,  4.852198 )     2.15819950
  WF centre and spread   84  ( -2.050850,  3.382123,  4.758737 )     1.74183012
  WF centre and spread   85  (  0.666749, -0.673777,  0.678065 )    31.18174709
  WF centre and spread   86  ( -0.700071,  0.647049,  0.606124 )    31.04847329
  WF centre and spread   87  ( -0.633204, -0.645100, -0.638857 )    31.38455395
  WF centre and spread   88  (  0.679870,  0.647743, -0.663559 )    31.22007176
  WF centre and spread   89  ( -2.049040,  2.042025,  0.678088 )    31.18305377
  WF centre and spread   90  (  2.015720, -2.068832,  6.037209 )     1.50747002
  WF centre and spread   91  (  2.082350, -3.360550,  4.792212 )     1.89464843
  WF centre and spread   92  (  3.395369, -2.067764,  4.767448 )     1.73028649
  WF centre and spread   93  ( -0.701180,  0.660622,  6.066273 )     1.58564698
  WF centre and spread   94  (  0.598236, -0.724339,  6.011603 )     1.56808914
  WF centre and spread   95  ( -0.579783, -0.599192,  4.849468 )     2.14593187
  WF centre and spread   96  (  0.664533,  0.666382,  4.759141 )     1.74578712
  WF centre and spread   97  ( -3.417836, -4.770574, -2.082221 )     1.57644542
  WF centre and spread   98  ( -2.118409, -6.156675, -2.137391 )     1.56437851
  WF centre and spread   99  (  2.137500, -0.598977,  2.137098 )    31.65894791
  WF centre and spread  100  ( -2.050972, -4.764501, -3.388282 )     1.74379806
  WF centre and spread  101  ( -4.764545, -3.389443, -2.037767 )     1.69857990
  WF centre and spread  102  ( -6.131062, -2.068349, -2.109237 )     1.50731779
  WF centre and spread  103  ( -0.633428,  2.070096,  2.076916 )    31.38823253
  WF centre and spread  104  ( -4.751159, -2.067823, -3.379402 )     1.73130078
  WF centre and spread  105  ( -7.480647, -0.673641, -2.038188 )     1.69733728
  WF centre and spread  106  ( -3.415378, -4.784296,  3.321689 )    30.95775607
  WF centre and spread  107  (  2.081920, -0.644649,  7.507776 )     1.89427327
  WF centre and spread  108  ( -2.035235, -4.783342,  2.051692 )    31.23318771
  WF centre and spread  109  ( -0.701301, -7.485937, -2.080214 )     1.58719833
  WF centre and spread  110  ( -4.832941, -3.439953,  3.295881 )    31.00459850
  WF centre and spread  111  ( -0.580163,  2.116160,  7.565441 )     2.15074631
  WF centre and spread  112  ( -4.766615, -2.049293,  2.043133 )    31.26546019
  WF centre and spread  113  ( -3.420100, -3.349971, -0.658291 )     1.59968524
  WF centre and spread  114  ( -2.123523, -3.291023,  0.727719 )     1.57951822
  WF centre and spread  115  ( -3.291905, -2.137061,  0.595781 )     2.16632502
  WF centre and spread  116  ( -2.050020, -2.044699, -0.667259 )     1.74191912
  WF centre and spread  117  ( -6.135570, -0.634425, -0.658931 )     1.59899832
  WF centre and spread  118  ( -4.841429, -0.573005,  0.728041 )     1.58724162
  WF centre and spread  119  ( -6.006662,  0.576776,  0.594516 )     2.17615461
  WF centre and spread  120  ( -4.765860,  0.670419, -0.666786 )     1.74555857
  WF centre and spread  121  ( -3.420139, -3.349322,  4.771965 )    31.06213357
  WF centre and spread  122  ( -7.557467,  2.143269,  0.728178 )     1.58331152
  WF centre and spread  123  (  2.140258, -7.570096,  0.594675 )     2.17788667
  WF centre and spread  124  ( -2.050367, -2.045042,  4.764185 )    31.26346079
  WF centre and spread  125  ( -0.704958, -6.064133, -0.658579 )     1.59560509
  WF centre and spread  126  (  0.593196, -6.006657,  0.726327 )     1.57928059
  WF centre and spread  127  ( -0.577431, -4.852440,  0.596487 )     2.17547165
  WF centre and spread  128  (  0.664482, -4.760691, -0.666489 )     1.74862860
  WF centre and spread  129  (  4.727858,  0.658851, -4.799024 )     1.57627417
  WF centre and spread  130  (  0.593130,  4.703396,  0.574233 )    31.00508423
  WF centre and spread  131  ( -0.571782,  4.835804, -0.578271 )    31.63724274
  WF centre and spread  132  ( -4.765838,  0.667040,  4.758590 )     1.74186055
  WF centre and spread  133  (  3.380899,  2.041644, -4.753965 )     1.69793399
  WF centre and spread  134  (  2.012839,  3.357288, -4.830442 )     1.51124064
  WF centre and spread  135  (  2.087976,  2.075249, -6.069019 )     1.88402608
  WF centre and spread  136  ( -2.035062, -2.068005, -0.663156 )    31.22384862
  WF centre and spread  137  (  0.665087,  4.757449, -4.753929 )     1.69928744
  WF centre and spread  138  (  4.728621,  0.641403,  0.600635 )    30.95952866
  WF centre and spread  139  (  4.803541, -0.640211, -0.637937 )    31.38684819
  WF centre and spread  140  (  0.680442, -4.783512,  4.767853 )     1.73216573
  WF centre and spread  141  (  3.381629,  2.041565,  0.676386 )    31.20663956
  WF centre and spread  142  (  2.014186,  3.356457,  0.602955 )    30.96423692
  WF centre and spread  143  (  2.087961,  2.074758, -0.638458 )    31.38481620
  WF centre and spread  144  ( -2.034889, -2.067735,  4.768047 )     1.73423017
  WF centre and spread  145  (  4.729024,  3.376302, -2.082272 )     1.57709834
  WF centre and spread  146  (  6.028437,  1.990169, -2.137521 )     1.56550075
  WF centre and spread  147  (  4.853655,  2.117065, -3.294392 )     2.16009178
  WF centre and spread  148  (  0.664321, -2.049132,  2.043462 )    31.22225119
  WF centre and spread  149  (  3.382444,  4.757539, -2.037748 )     1.69958023
  WF centre and spread  150  (  2.015720,  6.078301, -2.109599 )     1.50794824
  WF centre and spread  151  (  2.082557,  4.786144, -3.354577 )     1.89583896
  WF centre and spread  152  ( -2.035884,  0.647379,  2.052225 )    31.22681711
  WF centre and spread  153  (  0.666703,  7.473468, -2.037862 )     1.70026003
  WF centre and spread  154  (  4.731495,  3.362387,  3.321447 )    30.95792206
  WF centre and spread  155  (  4.798133,  2.070717,  2.076513 )    31.39715737
  WF centre and spread  156  (  0.680047, -2.068160,  7.483325 )     1.73629109
  WF centre and spread  157  (  7.445471,  0.660792, -2.080385 )     1.58749175
  WF centre and spread  158  (  3.313905,  4.706876,  3.295743 )    31.00544577
  WF centre and spread  159  (  2.136110,  4.832160,  2.133864 )    31.64485416
  WF centre and spread  160  ( -2.051266,  0.666068,  7.474879 )     1.75150169
  WF centre and spread  161  ( -0.702090,  0.660635, -4.797992 )    31.04727254
  WF centre and spread  162  (  0.597247, -0.725464, -4.853264 )    31.00273473
  WF centre and spread  163  (  4.853402,  4.832381, -0.578481 )     2.16385331
  WF centre and spread  164  ( -4.766782, -4.764747, -0.672561 )     1.74930643
  WF centre and spread  165  ( -2.048854,  2.041872, -4.753575 )    31.20735774
  WF centre and spread  166  ( -3.415272,  3.362901, -4.824971 )    30.95793523
  WF centre and spread  167  (  2.082342,  7.501334, -0.638802 )     1.89836365
  WF centre and spread  168  ( -7.466903, -2.068171, -0.663627 )     1.73644687
  WF centre and spread  169  ( -4.764948,  4.757676, -4.754012 )    31.20631820
  WF centre and spread  170  (  4.731408, -4.784056, -4.825045 )    30.95880794
  WF centre and spread  171  (  4.797694,  4.786597,  4.792056 )    31.39569780
  WF centre and spread  172  ( -4.750952, -4.783690,  4.767469 )    31.23688748
  WF centre and spread  173  (  2.014442, -2.054727, -4.795973 )    31.05676645
  WF centre and spread  174  (  3.313710, -3.439736, -4.850988 )    31.00596166
  WF centre and spread  175  (  7.566731,  2.116508, -0.581152 )     2.15259553
  WF centre and spread  176  ( -2.051389, -7.480563, -0.672134 )     1.75359035
  WF centre and spread  177  ( -0.704240,  2.081384, -3.373969 )    31.06864295
  WF centre and spread  178  (  0.592114,  2.140391, -1.987996 )    31.01337631
  WF centre and spread  179  ( -0.575986,  3.294017, -2.120080 )    31.66055647
  WF centre and spread  180  ( -4.765773, -2.044923,  2.048618 )     1.74690692
  WF centre and spread  181  ( -3.419851,  4.796812, -3.374602 )    31.06797749
  WF centre and spread  182  ( -2.125839,  4.858395, -1.987656 )    31.02085623
  WF centre and spread  183  (  2.140287,  0.576877, -7.552373 )     2.17829893
  WF centre and spread  184  ( -7.481675,  0.670152,  2.048933 )     1.75110628
  WF centre and spread  185  (  4.726583, -3.349084, -3.374703 )    31.06318378
  WF centre and spread  186  (  0.589124,  2.143670, -7.418520 )     1.58521343
  WF centre and spread  187  (  4.856208, -2.138994, -2.121212 )    31.66935780
  WF centre and spread  188  (  0.664822, -7.476306,  2.048903 )     1.75085703
  WF centre and spread  189  (  2.010765, -0.632894, -3.374242 )    31.06372391
  WF centre and spread  190  (  3.308797, -0.575260, -1.989373 )    31.01476456
  WF centre and spread  191  (  2.138515,  0.578654, -2.119395 )    31.66827562
  WF centre and spread  192  ( -2.051312, -4.760963,  2.049228 )     1.75412901
  WF centre and spread  193  (  3.377252, -0.673494, -2.040995 )     1.69845753
  WF centre and spread  194  (  2.012473,  0.635218, -2.120295 )     1.51025985
  WF centre and spread  195  (  2.091671, -0.634945, -3.350211 )     1.90796694
  WF centre and spread  196  (  3.398437,  0.646713, -3.376857 )     1.73500250
  WF centre and spread  197  (  0.660923,  2.042913, -2.039545 )     1.70740707
  WF centre and spread  198  ( -0.701594,  3.356392, -2.115721 )     1.50891694
  WF centre and spread  199  ( -0.626232,  2.076155, -3.354456 )     1.89126179
  WF centre and spread  200  (  0.682974,  3.361905, -3.377141 )     1.73500571
  WF centre and spread  201  ( -2.054913,  4.758720, -2.039355 )     1.70907679
  WF centre and spread  202  (  2.014164,  0.640648,  3.315420 )    30.95817124
  WF centre and spread  203  (  2.089298, -0.639370,  2.076563 )    31.39241942
  WF centre and spread  204  (  3.398496,  0.646388,  2.053865 )    31.22973650
  WF centre and spread  205  (  0.661766,  2.042635,  3.390961 )    31.21994969
  WF centre and spread  206  (  4.730853, -2.074996, -2.113150 )     1.51598430
  WF centre and spread  207  ( -0.626387,  2.075514,  2.075894 )    31.38983981
  WF centre and spread  208  (  0.683221,  3.362184,  2.053993 )    31.23147267
  WF centre and spread  209  (  2.013198,  3.374800,  0.632596 )     1.57609510
  WF centre and spread  210  (  3.307126,  1.988626,  0.572979 )     1.56625349
  WF centre and spread  211  (  2.143242,  2.119781, -0.575295 )     2.18092235
  WF centre and spread  212  (  3.380832,  3.382657, -0.672289 )     1.74916325
  WF centre and spread  213  (  0.662864,  4.758870,  0.676820 )     1.71039969
  WF centre and spread  214  ( -0.698513,  6.078282,  0.606160 )     1.50580490
  WF centre and spread  215  ( -0.632183,  4.786247, -0.640962 )     1.90256025
  WF centre and spread  216  (  0.682166,  6.077536, -0.662108 )     1.73742122
  WF centre and spread  217  ( -2.053308,  7.474736,  0.676775 )     1.71032382
  WF centre and spread  218  (  7.448263, -2.068643,  0.606165 )     1.50668229
  WF centre and spread  219  (  2.083405,  2.070848,  4.790155 )    31.40255815
  WF centre and spread  220  (  3.398174,  3.361773,  4.769211 )    31.23296017
  WF centre and spread  221  (  6.094119, -0.672325,  0.676257 )     1.71155165
  WF centre and spread  222  (  4.733936,  0.646754,  0.608940 )     1.51318875
  WF centre and spread  223  (  4.798538, -0.645361, -0.641534 )     1.89993636
  WF centre and spread  224  (  6.113455,  0.646599, -0.661765 )     1.73935747
  WF centre and spread  225  ( -3.417819,  0.659291, -2.082952 )    31.04739941
  WF centre and spread  226  ( -2.123636, -0.726850, -2.142772 )    31.00426306
  WF centre and spread  227  (  2.142749,  4.835134,  2.140610 )     2.18596573
  WF centre and spread  228  ( -2.050274,  0.667245, -3.388488 )    31.26520569
  WF centre and spread  229  ( -4.768422,  2.043201, -2.039018 )    31.22105441
  WF centre and spread  230  ( -0.698476, -2.068044, -7.540111 )     1.50652269
  WF centre and spread  231  ( -0.632443,  7.501400,  2.074779 )     1.90500057
  WF centre and spread  232  ( -4.748841,  3.361978, -3.377956 )    31.23338030
  WF centre and spread  233  ( -2.053601, -0.671942, -7.470056 )     1.71186550
  WF centre and spread  234  (  2.017296, -4.783977, -2.109119 )    30.95734831
  WF centre and spread  235  (  7.514139, -0.644992,  2.074893 )     1.90550130
  WF centre and spread  236  (  3.398159, -4.784796, -3.377632 )    31.23371601
  WF centre and spread  237  ( -0.701251, -2.056043, -2.080861 )    31.05840971
  WF centre and spread  238  (  0.592440, -3.441201, -2.140251 )    31.00827797
  WF centre and spread  239  (  4.856199,  2.119291,  2.138004 )     2.17382030
  WF centre and spread  240  (  0.665150, -2.048769, -3.387969 )    31.26852954
  WF centre and spread  241  ( -3.419508,  2.082001, -0.659310 )    31.07577079
  WF centre and spread  242  ( -2.128886,  2.145470,  0.728677 )    31.01686731
  WF centre and spread  243  (  2.143557, -2.142794, -4.838123 )     2.18551618
  WF centre and spread  244  ( -2.049344,  3.386688, -0.667604 )    31.26357883
  WF centre and spread  245  (  0.661438, -0.674576, -4.756000 )     1.72534101
  WF centre and spread  246  ( -0.702356, -0.598223, -6.069259 )     1.53178612
  WF centre and spread  247  ( -0.631420,  0.634984, -4.794599 )     1.93555937
  WF centre and spread  248  (  0.682006,  0.659527, -6.077744 )     1.74400507
  WF centre and spread  249  (  2.011203, -3.348248, -0.659774 )    31.06971066
  WF centre and spread  250  ( -2.131341,  2.148425, -4.702357 )     1.58701457
  WF centre and spread  251  (  2.145285, -2.144863,  0.591872 )    31.68026515
  WF centre and spread  252  (  3.381206, -2.044724, -0.667390 )    31.26752121
  WF centre and spread  253  ( -0.704575, -0.632109, -0.659320 )    31.07013263
  WF centre and spread  254  (  0.587644, -0.569899,  0.727546 )    31.01892160
  WF centre and spread  255  ( -0.572307,  0.572866,  0.593685 )    31.68372101
  WF centre and spread  256  (  0.665210,  0.670666, -0.667096 )    31.27063132
  Sum of centres and spreads ( -0.095432, -0.051030, -1.351795 )  3275.06492877
 
      1    -0.303E+03                      3275.0649287710       1.08  <-- CONV
        O_D=   2830.2213760 O_OD=     70.3320608 O_TOT=   3275.0649288 <-- SPRD
 Delta: O_D= -0.4057853E+02 O_OD= -0.2626027E+03 O_TOT= -0.3031812E+03 <-- DLTA
 ------------------------------------------------------------------------------
 Cycle:      2
  WF centre and spread    1  (  0.676133, -0.676106,  0.683904 )     1.63000713
  WF centre and spread    2  ( -0.678869,  0.679357,  0.674544 )     1.65098002
  WF centre and spread    3  ( -0.678508, -0.680543, -0.678008 )     1.63322627
  WF centre and spread    4  (  0.680276,  0.678156, -0.678292 )     1.63310324
  WF centre and spread    5  ( -2.039045,  2.039331,  0.682952 )     1.63103032
  WF centre and spread    6  ( -3.394499,  3.395209,  0.674216 )     1.65381201
  WF centre and spread    7  ( -3.394161,  2.034856, -0.678217 )     1.63398023
  WF centre and spread    8  ( -2.035200,  3.393644, -0.678528 )     1.63379510
  WF centre and spread    9  ( -4.754777,  4.754838,  0.683417 )     1.62766389
  WF centre and spread   10  (  4.752051, -4.751336,  0.674316 )     1.65410203
  WF centre and spread   11  ( -0.678597, -0.680621,  4.752858 )    31.12875032
  WF centre and spread   12  (  0.680283,  0.678103,  4.752531 )    31.12881433
  WF centre and spread   13  (  3.391821, -3.391794,  0.683155 )     1.62758816
  WF centre and spread   14  (  2.036476, -2.035635,  0.673889 )     1.65171654
  WF centre and spread   15  (  2.036952, -3.396154, -0.678097 )     1.63387932
  WF centre and spread   16  (  3.395675, -2.037265, -0.678439 )     1.63359505
  WF centre and spread   17  ( -0.674833,  3.391270,  3.400171 )     1.62351312
  WF centre and spread   18  (  0.678707,  2.036202,  3.388213 )     1.66029293
  WF centre and spread   19  ( -0.680258,  2.037017,  2.037429 )     1.63128242
  WF centre and spread   20  (  0.678844,  3.394848,  2.037009 )     1.63461936
  WF centre and spread   21  ( -2.038794,  4.754908,  3.398346 )     1.63165329
  WF centre and spread   22  (  2.036792,  0.679425, -2.041421 )    31.14542933
  WF centre and spread   23  ( -3.394142,  4.750436,  2.037293 )     1.62996441
  WF centre and spread   24  ( -2.035275,  6.109058,  2.036804 )     1.63324357
  WF centre and spread   25  (  0.676425,  2.039473, -2.032100 )    31.12465437
  WF centre and spread   26  (  4.752300, -2.036080,  3.389666 )     1.65317791
  WF centre and spread   27  (  4.752439, -3.396059,  2.037383 )     1.62968815
  WF centre and spread   28  (  6.111220, -2.037504,  2.036888 )     1.63284468
  WF centre and spread   29  (  3.392091, -0.676080,  3.398548 )     1.62815171
  WF centre and spread   30  (  2.036899,  0.679246,  3.389607 )     1.64840187
  WF centre and spread   31  (  2.036925, -0.680362,  2.037435 )     1.62895055
  WF centre and spread   32  (  3.396065,  0.678129,  2.037052 )     1.63374560
  WF centre and spread   33  ( -0.674301, -4.754796, -4.746015 )     1.62067141
  WF centre and spread   34  ( -4.752244, -0.680123,  0.672568 )    31.15955620
  WF centre and spread   35  ( -0.680417,  4.752638,  4.753275 )     1.63249895
  WF centre and spread   36  ( -4.752181,  0.679325, -0.678791 )    31.13107906
  WF centre and spread   37  ( -2.038760, -3.392421, -4.748122 )     1.63300530
  WF centre and spread   38  ( -3.393470, -2.035599, -4.756503 )     1.64852092
  WF centre and spread   39  (  2.036951,  2.035196, -0.677871 )    31.12627723
  WF centre and spread   40  ( -2.035186, -2.037379, -6.109831 )     1.63339488
  WF centre and spread   41  ( -4.754872, -0.676785, -4.747927 )     1.63099342
  WF centre and spread   42  ( -0.677790, -4.751239,  0.675399 )    31.14964863
  WF centre and spread   43  (  4.752378, -0.680370,  4.753139 )     1.62992551
  WF centre and spread   44  (  0.680699, -4.753015, -0.678792 )    31.12951339
  WF centre and spread   45  ( -3.389997, -2.038985,  0.684519 )    31.11407029
  WF centre and spread   46  ( -2.036973, -3.395796,  0.671563 )    31.15405422
  WF centre and spread   47  (  2.035140,  2.037362,  4.753141 )     1.63096912
  WF centre and spread   48  ( -2.036346, -2.036139, -0.678695 )    31.13135783
  WF centre and spread   49  ( -0.676282, -3.399551, -3.391144 )     1.62400404
  WF centre and spread   50  (  0.679027, -3.386872, -2.035710 )     1.65538364
  WF centre and spread   51  ( -0.680758, -2.036578, -2.038920 )     1.62674708
  WF centre and spread   52  (  0.679030, -2.036945, -3.394479 )     1.63368171
  WF centre and spread   53  ( -3.391579, -0.684236, -3.391200 )     1.62322957
  WF centre and spread   54  ( -2.036842, -0.670898, -2.034199 )     1.65984292
  WF centre and spread   55  ( -3.396490,  0.679117, -2.039121 )     1.62802929
  WF centre and spread   56  ( -2.036034,  0.678545, -3.394537 )     1.63483496
  WF centre and spread   57  ( -0.676218, -3.399523,  2.039742 )    31.11593851
  WF centre and spread   58  ( -4.752420,  2.044664, -2.034145 )     1.66037904
  WF centre and spread   59  ( -0.680831, -2.036503,  3.391968 )    31.12445509
  WF centre and spread   60  (  0.679488, -2.036994,  2.036464 )    31.13028578
  WF centre and spread   61  ( -3.391942, -0.683899,  2.039870 )    31.11689911
  WF centre and spread   62  ( -2.036938, -0.670897,  3.396601 )    31.15913186
  WF centre and spread   63  (  2.035183, -4.752643, -2.037409 )     1.63366471
  WF centre and spread   64  ( -2.036055,  0.678577,  2.036461 )    31.13031322
  WF centre and spread   65  ( -3.390434,  0.675657,  3.400708 )     1.62287258
  WF centre and spread   66  ( -2.037076, -0.679601,  3.388263 )     1.66005091
  WF centre and spread   67  ( -3.395809, -0.678661,  2.037457 )     1.63571179
  WF centre and spread   68  ( -2.036847,  0.679421,  2.036644 )     1.63399512
  WF centre and spread   69  ( -4.754558,  2.039149,  3.398367 )     1.63047880
  WF centre and spread   70  ( -0.678921, -2.035949, -2.041205 )    31.14649811
  WF centre and spread   71  ( -6.109814,  2.034808,  2.037467 )     1.63473199
  WF centre and spread   72  ( -4.750494,  3.393406,  2.036707 )     1.63367830
  WF centre and spread   73  ( -2.039359, -0.676300, -2.032071 )    31.12360813
  WF centre and spread   74  (  2.036587, -4.751454,  3.389878 )     1.65425971
  WF centre and spread   75  (  2.036750, -6.111667,  2.037545 )     1.63439519
  WF centre and spread   76  (  3.395999, -4.753172,  2.036796 )     1.63332841
  WF centre and spread   77  (  0.676268, -3.391948,  3.398652 )     1.62753631
  WF centre and spread   78  ( -0.678695, -2.035742,  3.389676 )     1.65121652
  WF centre and spread   79  ( -0.678687, -3.396137,  2.037655 )     1.63430064
  WF centre and spread   80  (  0.680491, -2.037718,  2.036750 )     1.63310040
  WF centre and spread   81  (  2.040691, -2.039898,  0.684913 )    31.12105423
  WF centre and spread   82  ( -2.036802,  2.036220,  6.103292 )     1.66014646
  WF centre and spread   83  ( -3.395975,  2.036960,  4.753188 )     1.63248254
  WF centre and spread   84  ( -2.036973,  3.395095,  4.751990 )     1.63451132
  WF centre and spread   85  (  0.676646, -0.676227,  0.682816 )    31.12745612
  WF centre and spread   86  ( -0.678675,  0.679329,  0.674182 )    31.14539650
  WF centre and spread   87  ( -0.678805, -0.680585, -0.678020 )    31.12677913
  WF centre and spread   88  (  0.680443,  0.677859, -0.678900 )    31.12972949
  WF centre and spread   89  ( -2.039219,  2.039389,  0.683399 )    31.12417902
  WF centre and spread   90  (  2.037011, -2.036300,  6.106139 )     1.65579464
  WF centre and spread   91  (  2.036786, -3.396072,  4.753064 )     1.63029848
  WF centre and spread   92  (  3.395928, -2.037717,  4.752172 )     1.63303538
  WF centre and spread   93  ( -0.675064,  0.675902,  6.115439 )     1.62271051
  WF centre and spread   94  (  0.678736, -0.679398,  6.102614 )     1.65191707
  WF centre and spread   95  ( -0.680336, -0.678324,  4.753039 )     1.63081475
  WF centre and spread   96  (  0.678453,  0.679352,  4.751973 )     1.63317199
  WF centre and spread   97  ( -3.389714, -4.755010, -2.030275 )     1.62015020
  WF centre and spread   98  ( -2.036790, -6.111071, -2.043196 )     1.66146387
  WF centre and spread   99  (  2.035051, -0.678447,  2.038008 )    31.12928272
  WF centre and spread  100  ( -2.036967, -4.751464, -3.394567 )     1.63459061
  WF centre and spread  101  ( -4.754307, -3.392585, -2.032650 )     1.63296316
  WF centre and spread  102  ( -6.108890, -2.035708, -2.040899 )     1.64850837
  WF centre and spread  103  ( -0.678787,  2.035099,  2.037839 )    31.12714538
  WF centre and spread  104  ( -4.750536, -2.037699, -3.394471 )     1.63348470
  WF centre and spread  105  ( -7.470457, -0.677062, -2.032346 )     1.63126615
  WF centre and spread  106  ( -3.393206, -4.751354,  3.391051 )    31.14987526
  WF centre and spread  107  (  2.036582, -0.680158,  7.468784 )     1.62989790
  WF centre and spread  108  ( -2.035179, -4.753235,  2.036593 )    31.12797385
  WF centre and spread  109  ( -0.674420, -7.470193, -2.030734 )     1.61951816
  WF centre and spread  110  ( -4.752532, -3.395855,  3.386856 )    31.15487900
  WF centre and spread  111  ( -0.680537,  2.037332,  7.468915 )     1.63194367
  WF centre and spread  112  ( -4.752585, -2.036084,  2.036448 )    31.12916198
  WF centre and spread  113  ( -3.391757, -3.399818, -0.675329 )     1.62377726
  WF centre and spread  114  ( -2.036526, -3.386502,  0.679713 )     1.65569320
  WF centre and spread  115  ( -3.396240, -2.036647,  0.676584 )     1.62661532
  WF centre and spread  116  ( -2.036961, -2.036608, -0.679701 )     1.63398276
  WF centre and spread  117  ( -6.107065, -0.684511, -0.675398 )     1.62302860
  WF centre and spread  118  ( -4.752476, -0.670705,  0.681381 )     1.66128408
  WF centre and spread  119  ( -6.112014,  0.679026,  0.676320 )     1.62794878
  WF centre and spread  120  ( -4.752464,  0.678823, -0.679724 )     1.63389288
  WF centre and spread  121  ( -3.391701, -3.399781,  4.755551 )    31.11546309
  WF centre and spread  122  ( -7.468029,  2.044940,  0.681470 )     1.66153098
  WF centre and spread  123  (  2.034599, -7.467593,  0.676460 )     1.62840340
  WF centre and spread  124  ( -2.036974, -2.036666,  4.751271 )    31.12925163
  WF centre and spread  125  ( -0.676415, -6.115157, -0.675324 )     1.62323115
  WF centre and spread  126  (  0.678462, -6.101617,  0.681207 )     1.66090703
  WF centre and spread  127  ( -0.680364, -4.752781,  0.678168 )     1.63413833
  WF centre and spread  128  (  0.678435, -4.752082, -0.679728 )     1.63400770
  WF centre and spread  129  (  4.756212,  0.676107, -4.745933 )     1.62482447
  WF centre and spread  130  (  0.678435,  4.751412,  0.672742 )    31.15957877
  WF centre and spread  131  ( -0.680267,  4.752389, -0.678111 )    31.13140013
  WF centre and spread  132  ( -4.752379,  0.679532,  4.752139 )     1.63561848
  WF centre and spread  133  (  3.391499,  2.038995, -4.747967 )     1.62861515
  WF centre and spread  134  (  2.036616,  3.395141, -4.756747 )     1.65413033
  WF centre and spread  135  (  2.036848,  2.034986, -6.109481 )     1.63674863
  WF centre and spread  136  ( -2.034972, -2.037667, -0.678702 )    31.13098664
  WF centre and spread  137  (  0.676163,  4.754695, -4.747565 )     1.62750698
  WF centre and spread  138  (  4.752129,  0.679635,  0.674337 )    31.15333058
  WF centre and spread  139  (  4.752279, -0.680642, -0.678016 )    31.12968948
  WF centre and spread  140  (  0.680482, -4.753195,  4.752300 )     1.63438415
  WF centre and spread  141  (  3.391798,  2.039046,  0.683156 )    31.12303375
  WF centre and spread  142  (  2.036844,  3.395351,  0.674130 )    31.15067760
  WF centre and spread  143  (  2.036845,  2.034886, -0.677903 )    31.12965222
  WF centre and spread  144  ( -2.035134, -2.037699,  4.752238 )     1.63375703
  WF centre and spread  145  (  4.756206,  3.391161, -2.030612 )     1.62347159
[...]
 ------------------------------------------------------------------------------
 Time for wannierise           71.713 (sec)

 done

 *---------------------------------------------------------------------------*
 |                               PLOTTING                                    |
 *---------------------------------------------------------------------------*
 
 Time for plotting              2.488 (sec)
      Wannier Function Num:    1       Maximum Im/Re Ratio =    0.000000
      Wannier Function Num:    2       Maximum Im/Re Ratio =    0.000000
      Wannier Function Num:    3       Maximum Im/Re Ratio =    0.000000
      Wannier Function Num:    4       Maximum Im/Re Ratio =    0.000000
      Wannier Function Num:    5       Maximum Im/Re Ratio =    0.000000
      Wannier Function Num:    6       Maximum Im/Re Ratio =    0.000000
      Wannier Function Num:    7       Maximum Im/Re Ratio =    0.000000
      Wannier Function Num:    8       Maximum Im/Re Ratio =    0.000000
      Wannier Function Num:    9       Maximum Im/Re Ratio =    0.000000
      Wannier Function Num:   10       Maximum Im/Re Ratio =    0.000000
      Wannier Function Num:   11       Maximum Im/Re Ratio =    0.000000
      Wannier Function Num:   12       Maximum Im/Re Ratio =    0.000000
      Wannier Function Num:   13       Maximum Im/Re Ratio =    0.000000
      Wannier Function Num:   14       Maximum Im/Re Ratio =    0.000000
      Wannier Function Num:   15       Maximum Im/Re Ratio =    0.000000
      Wannier Function Num:   16       Maximum Im/Re Ratio =    0.000000
      Wannier Function Num:   17       Maximum Im/Re Ratio =    0.000000
      Wannier Function Num:   18       Maximum Im/Re Ratio =    0.000000
      Wannier Function Num:   19       Maximum Im/Re Ratio =    0.000000
      Wannier Function Num:   20       Maximum Im/Re Ratio =    0.000000
      Wannier Function Num:   21       Maximum Im/Re Ratio =    0.000000
      Wannier Function Num:   22       Maximum Im/Re Ratio =    0.000000
      Wannier Function Num:   23       Maximum Im/Re Ratio =    0.000000
      Wannier Function Num:   24       Maximum Im/Re Ratio =    0.000000
      Wannier Function Num:   25       Maximum Im/Re Ratio =    0.000000
      Wannier Function Num:   26       Maximum Im/Re Ratio =    0.000000
      Wannier Function Num:   27       Maximum Im/Re Ratio =    0.000000
      Wannier Function Num:   28       Maximum Im/Re Ratio =    0.000000
      Wannier Function Num:   29       Maximum Im/Re Ratio =    0.000000
      Wannier Function Num:   30       Maximum Im/Re Ratio =    0.000000
      Wannier Function Num:   31       Maximum Im/Re Ratio =    0.000000
      Wannier Function Num:   32       Maximum Im/Re Ratio =    0.000000
      Wannier Function Num:   33       Maximum Im/Re Ratio =    0.000000
      Wannier Function Num:   34       Maximum Im/Re Ratio =    0.000000
      Wannier Function Num:   35       Maximum Im/Re Ratio =    0.000000
      Wannier Function Num:   36       Maximum Im/Re Ratio =    0.000000
      Wannier Function Num:   37       Maximum Im/Re Ratio =    0.000000
      Wannier Function Num:   38       Maximum Im/Re Ratio =    0.000000
      Wannier Function Num:   39       Maximum Im/Re Ratio =    0.000000
      Wannier Function Num:   40       Maximum Im/Re Ratio =    0.000000
      Wannier Function Num:   41       Maximum Im/Re Ratio =    0.000000
      Wannier Function Num:   42       Maximum Im/Re Ratio =    0.000000
      Wannier Function Num:   43       Maximum Im/Re Ratio =    0.000000
      Wannier Function Num:   44       Maximum Im/Re Ratio =    0.000000
      Wannier Function Num:   45       Maximum Im/Re Ratio =    0.000000
      Wannier Function Num:   46       Maximum Im/Re Ratio =    0.000000
      Wannier Function Num:   47       Maximum Im/Re Ratio =    0.000000
      Wannier Function Num:   48       Maximum Im/Re Ratio =    0.000000
      Wannier Function Num:   49       Maximum Im/Re Ratio =    0.000000
      Wannier Function Num:   50       Maximum Im/Re Ratio =    0.000000
      Wannier Function Num:   51       Maximum Im/Re Ratio =    0.000000
      Wannier Function Num:   52       Maximum Im/Re Ratio =    0.000000
      Wannier Function Num:   53       Maximum Im/Re Ratio =    0.000000
      Wannier Function Num:   54       Maximum Im/Re Ratio =    0.000000
      Wannier Function Num:   55       Maximum Im/Re Ratio =    0.000000
      Wannier Function Num:   56       Maximum Im/Re Ratio =    0.000000
      Wannier Function Num:   57       Maximum Im/Re Ratio =    0.000000
      Wannier Function Num:   58       Maximum Im/Re Ratio =    0.000000
      Wannier Function Num:   59       Maximum Im/Re Ratio =    0.000000
      Wannier Function Num:   60       Maximum Im/Re Ratio =    0.000000
      Wannier Function Num:   61       Maximum Im/Re Ratio =    0.000000
      Wannier Function Num:   62       Maximum Im/Re Ratio =    0.000000
      Wannier Function Num:   63       Maximum Im/Re Ratio =    0.000000
      Wannier Function Num:   64       Maximum Im/Re Ratio =    0.000000
      Wannier Function Num:   65       Maximum Im/Re Ratio =    0.000000
      Wannier Function Num:   66       Maximum Im/Re Ratio =    0.000000
      Wannier Function Num:   67       Maximum Im/Re Ratio =    0.000000
      Wannier Function Num:   68       Maximum Im/Re Ratio =    0.000000
      Wannier Function Num:   69       Maximum Im/Re Ratio =    0.000000
      Wannier Function Num:   70       Maximum Im/Re Ratio =    0.000000
      Wannier Function Num:   71       Maximum Im/Re Ratio =    0.000000
      Wannier Function Num:   72       Maximum Im/Re Ratio =    0.000000
      Wannier Function Num:   73       Maximum Im/Re Ratio =    0.000000
      Wannier Function Num:   74       Maximum Im/Re Ratio =    0.000000
      Wannier Function Num:   75       Maximum Im/Re Ratio =    0.000000
      Wannier Function Num:   76       Maximum Im/Re Ratio =    0.000000
      Wannier Function Num:   77       Maximum Im/Re Ratio =    0.000000
      Wannier Function Num:   78       Maximum Im/Re Ratio =    0.000000
      Wannier Function Num:   79       Maximum Im/Re Ratio =    0.000000
      Wannier Function Num:   80       Maximum Im/Re Ratio =    0.000000
      Wannier Function Num:   81       Maximum Im/Re Ratio =    0.000000
      Wannier Function Num:   82       Maximum Im/Re Ratio =    0.000000
      Wannier Function Num:   83       Maximum Im/Re Ratio =    0.000000
      Wannier Function Num:   84       Maximum Im/Re Ratio =    0.000000
      Wannier Function Num:   85       Maximum Im/Re Ratio =    0.000000
      Wannier Function Num:   86       Maximum Im/Re Ratio =    0.000000
      Wannier Function Num:   87       Maximum Im/Re Ratio =    0.000000
      Wannier Function Num:   88       Maximum Im/Re Ratio =    0.000000
      Wannier Function Num:   89       Maximum Im/Re Ratio =    0.000000
      Wannier Function Num:   90       Maximum Im/Re Ratio =    0.000000
      Wannier Function Num:   91       Maximum Im/Re Ratio =    0.000000
      Wannier Function Num:   92       Maximum Im/Re Ratio =    0.000000
      Wannier Function Num:   93       Maximum Im/Re Ratio =    0.000000
      Wannier Function Num:   94       Maximum Im/Re Ratio =    0.000000
      Wannier Function Num:   95       Maximum Im/Re Ratio =    0.000000
      Wannier Function Num:   96       Maximum Im/Re Ratio =    0.000000
      Wannier Function Num:   97       Maximum Im/Re Ratio =    0.000000
      Wannier Function Num:   98       Maximum Im/Re Ratio =    0.000000
      Wannier Function Num:   99       Maximum Im/Re Ratio =    0.000000
      Wannier Function Num:  100       Maximum Im/Re Ratio =    0.000000
      Wannier Function Num:  101       Maximum Im/Re Ratio =    0.000000
      Wannier Function Num:  102       Maximum Im/Re Ratio =    0.000000
      Wannier Function Num:  103       Maximum Im/Re Ratio =    0.000000
      Wannier Function Num:  104       Maximum Im/Re Ratio =    0.000000
      Wannier Function Num:  105       Maximum Im/Re Ratio =    0.000000
      Wannier Function Num:  106       Maximum Im/Re Ratio =    0.000000
      Wannier Function Num:  107       Maximum Im/Re Ratio =    0.000000
      Wannier Function Num:  108       Maximum Im/Re Ratio =    0.000000
      Wannier Function Num:  109       Maximum Im/Re Ratio =    0.000000
      Wannier Function Num:  110       Maximum Im/Re Ratio =    0.000000
      Wannier Function Num:  111       Maximum Im/Re Ratio =    0.000000
      Wannier Function Num:  112       Maximum Im/Re Ratio =    0.000000
      Wannier Function Num:  113       Maximum Im/Re Ratio =    0.000000
      Wannier Function Num:  114       Maximum Im/Re Ratio =    0.000000
      Wannier Function Num:  115       Maximum Im/Re Ratio =    0.000000
      Wannier Function Num:  116       Maximum Im/Re Ratio =    0.000000
      Wannier Function Num:  117       Maximum Im/Re Ratio =    0.000000
      Wannier Function Num:  118       Maximum Im/Re Ratio =    0.000000
      Wannier Function Num:  119       Maximum Im/Re Ratio =    0.000000
      Wannier Function Num:  120       Maximum Im/Re Ratio =    0.000000
      Wannier Function Num:  121       Maximum Im/Re Ratio =    0.000000
      Wannier Function Num:  122       Maximum Im/Re Ratio =    0.000000
      Wannier Function Num:  123       Maximum Im/Re Ratio =    0.000000
      Wannier Function Num:  124       Maximum Im/Re Ratio =    0.000000
      Wannier Function Num:  125       Maximum Im/Re Ratio =    0.000000
      Wannier Function Num:  126       Maximum Im/Re Ratio =    0.000000
      Wannier Function Num:  127       Maximum Im/Re Ratio =    0.000000
      Wannier Function Num:  128       Maximum Im/Re Ratio =    0.000000
      Wannier Function Num:  129       Maximum Im/Re Ratio =    0.000000
      Wannier Function Num:  130       Maximum Im/Re Ratio =    0.000000
      Wannier Function Num:  131       Maximum Im/Re Ratio =    0.000000
      Wannier Function Num:  132       Maximum Im/Re Ratio =    0.000000
      Wannier Function Num:  133       Maximum Im/Re Ratio =    0.000000
      Wannier Function Num:  134       Maximum Im/Re Ratio =    0.000000
      Wannier Function Num:  135       Maximum Im/Re Ratio =    0.000000
      Wannier Function Num:  136       Maximum Im/Re Ratio =    0.000000
      Wannier Function Num:  137       Maximum Im/Re Ratio =    0.000000
      Wannier Function Num:  138       Maximum Im/Re Ratio =    0.000000
      Wannier Function Num:  139       Maximum Im/Re Ratio =    0.000000
      Wannier Function Num:  140       Maximum Im/Re Ratio =    0.000000
      Wannier Function Num:  141       Maximum Im/Re Ratio =    0.000000
      Wannier Function Num:  142       Maximum Im/Re Ratio =    0.000000
      Wannier Function Num:  143       Maximum Im/Re Ratio =    0.000000
      Wannier Function Num:  144       Maximum Im/Re Ratio =    0.000000
      Wannier Function Num:  145       Maximum Im/Re Ratio =    0.000000
      Wannier Function Num:  146       Maximum Im/Re Ratio =    0.000000
      Wannier Function Num:  147       Maximum Im/Re Ratio =    0.000000
      Wannier Function Num:  148       Maximum Im/Re Ratio =    0.000000
      Wannier Function Num:  149       Maximum Im/Re Ratio =    0.000000
      Wannier Function Num:  150       Maximum Im/Re Ratio =    0.000000
      Wannier Function Num:  151       Maximum Im/Re Ratio =    0.000000
      Wannier Function Num:  152       Maximum Im/Re Ratio =    0.000000
      Wannier Function Num:  153       Maximum Im/Re Ratio =    0.000000
      Wannier Function Num:  154       Maximum Im/Re Ratio =    0.000000
      Wannier Function Num:  155       Maximum Im/Re Ratio =    0.000000
      Wannier Function Num:  156       Maximum Im/Re Ratio =    0.000000
      Wannier Function Num:  157       Maximum Im/Re Ratio =    0.000000
      Wannier Function Num:  158       Maximum Im/Re Ratio =    0.000000
      Wannier Function Num:  159       Maximum Im/Re Ratio =    0.000000
      Wannier Function Num:  160       Maximum Im/Re Ratio =    0.000000
      Wannier Function Num:  161       Maximum Im/Re Ratio =    0.000000
      Wannier Function Num:  162       Maximum Im/Re Ratio =    0.000000
      Wannier Function Num:  163       Maximum Im/Re Ratio =    0.000000
      Wannier Function Num:  164       Maximum Im/Re Ratio =    0.000000
      Wannier Function Num:  165       Maximum Im/Re Ratio =    0.000000
      Wannier Function Num:  166       Maximum Im/Re Ratio =    0.000000
      Wannier Function Num:  167       Maximum Im/Re Ratio =    0.000000
      Wannier Function Num:  168       Maximum Im/Re Ratio =    0.000000
      Wannier Function Num:  169       Maximum Im/Re Ratio =    0.000000
      Wannier Function Num:  170       Maximum Im/Re Ratio =    0.000000
      Wannier Function Num:  171       Maximum Im/Re Ratio =    0.000000
      Wannier Function Num:  172       Maximum Im/Re Ratio =    0.000000
      Wannier Function Num:  173       Maximum Im/Re Ratio =    0.000000
      Wannier Function Num:  174       Maximum Im/Re Ratio =    0.000000
      Wannier Function Num:  175       Maximum Im/Re Ratio =    0.000000
      Wannier Function Num:  176       Maximum Im/Re Ratio =    0.000000
      Wannier Function Num:  177       Maximum Im/Re Ratio =    0.000000
      Wannier Function Num:  178       Maximum Im/Re Ratio =    0.000000
      Wannier Function Num:  179       Maximum Im/Re Ratio =    0.000000
      Wannier Function Num:  180       Maximum Im/Re Ratio =    0.000000
      Wannier Function Num:  181       Maximum Im/Re Ratio =    0.000000
      Wannier Function Num:  182       Maximum Im/Re Ratio =    0.000000
      Wannier Function Num:  183       Maximum Im/Re Ratio =    0.000000
      Wannier Function Num:  184       Maximum Im/Re Ratio =    0.000000
      Wannier Function Num:  185       Maximum Im/Re Ratio =    0.000000
      Wannier Function Num:  186       Maximum Im/Re Ratio =    0.000000
      Wannier Function Num:  187       Maximum Im/Re Ratio =    0.000000
      Wannier Function Num:  188       Maximum Im/Re Ratio =    0.000000
      Wannier Function Num:  189       Maximum Im/Re Ratio =    0.000000
      Wannier Function Num:  190       Maximum Im/Re Ratio =    0.000000
      Wannier Function Num:  191       Maximum Im/Re Ratio =    0.000000
      Wannier Function Num:  192       Maximum Im/Re Ratio =    0.000000
      Wannier Function Num:  193       Maximum Im/Re Ratio =    0.000000
      Wannier Function Num:  194       Maximum Im/Re Ratio =    0.000000
      Wannier Function Num:  195       Maximum Im/Re Ratio =    0.000000
      Wannier Function Num:  196       Maximum Im/Re Ratio =    0.000000
      Wannier Function Num:  197       Maximum Im/Re Ratio =    0.000000
      Wannier Function Num:  198       Maximum Im/Re Ratio =    0.000000
      Wannier Function Num:  199       Maximum Im/Re Ratio =    0.000000
      Wannier Function Num:  200       Maximum Im/Re Ratio =    0.000000
      Wannier Function Num:  201       Maximum Im/Re Ratio =    0.000000
      Wannier Function Num:  202       Maximum Im/Re Ratio =    0.000000
      Wannier Function Num:  203       Maximum Im/Re Ratio =    0.000000
      Wannier Function Num:  204       Maximum Im/Re Ratio =    0.000000
      Wannier Function Num:  205       Maximum Im/Re Ratio =    0.000000
      Wannier Function Num:  206       Maximum Im/Re Ratio =    0.000000
      Wannier Function Num:  207       Maximum Im/Re Ratio =    0.000000
      Wannier Function Num:  208       Maximum Im/Re Ratio =    0.000000
      Wannier Function Num:  209       Maximum Im/Re Ratio =    0.000000
      Wannier Function Num:  210       Maximum Im/Re Ratio =    0.000000
      Wannier Function Num:  211       Maximum Im/Re Ratio =    0.000000
      Wannier Function Num:  212       Maximum Im/Re Ratio =    0.000000
      Wannier Function Num:  213       Maximum Im/Re Ratio =    0.000000
      Wannier Function Num:  214       Maximum Im/Re Ratio =    0.000000
      Wannier Function Num:  215       Maximum Im/Re Ratio =    0.000000
      Wannier Function Num:  216       Maximum Im/Re Ratio =    0.000000
      Wannier Function Num:  217       Maximum Im/Re Ratio =    0.000000
      Wannier Function Num:  218       Maximum Im/Re Ratio =    0.000000
      Wannier Function Num:  219       Maximum Im/Re Ratio =    0.000000
      Wannier Function Num:  220       Maximum Im/Re Ratio =    0.000000
      Wannier Function Num:  221       Maximum Im/Re Ratio =    0.000000
      Wannier Function Num:  222       Maximum Im/Re Ratio =    0.000000
      Wannier Function Num:  223       Maximum Im/Re Ratio =    0.000000
      Wannier Function Num:  224       Maximum Im/Re Ratio =    0.000000
      Wannier Function Num:  225       Maximum Im/Re Ratio =    0.000000
      Wannier Function Num:  226       Maximum Im/Re Ratio =    0.000000
      Wannier Function Num:  227       Maximum Im/Re Ratio =    0.000000
      Wannier Function Num:  228       Maximum Im/Re Ratio =    0.000000
      Wannier Function Num:  229       Maximum Im/Re Ratio =    0.000000
      Wannier Function Num:  230       Maximum Im/Re Ratio =    0.000000
      Wannier Function Num:  231       Maximum Im/Re Ratio =    0.000000
      Wannier Function Num:  232       Maximum Im/Re Ratio =    0.000000
      Wannier Function Num:  233       Maximum Im/Re Ratio =    0.000000
      Wannier Function Num:  234       Maximum Im/Re Ratio =    0.000000
      Wannier Function Num:  235       Maximum Im/Re Ratio =    0.000000
      Wannier Function Num:  236       Maximum Im/Re Ratio =    0.000000
      Wannier Function Num:  237       Maximum Im/Re Ratio =    0.000000
      Wannier Function Num:  238       Maximum Im/Re Ratio =    0.000000
      Wannier Function Num:  239       Maximum Im/Re Ratio =    0.000000
      Wannier Function Num:  240       Maximum Im/Re Ratio =    0.000000
      Wannier Function Num:  241       Maximum Im/Re Ratio =    0.000000
      Wannier Function Num:  242       Maximum Im/Re Ratio =    0.000000
      Wannier Function Num:  243       Maximum Im/Re Ratio =    0.000000
      Wannier Function Num:  244       Maximum Im/Re Ratio =    0.000000
      Wannier Function Num:  245       Maximum Im/Re Ratio =    0.000000
      Wannier Function Num:  246       Maximum Im/Re Ratio =    0.000000
      Wannier Function Num:  247       Maximum Im/Re Ratio =    0.000000
      Wannier Function Num:  248       Maximum Im/Re Ratio =    0.000000
      Wannier Function Num:  249       Maximum Im/Re Ratio =    0.000000
      Wannier Function Num:  250       Maximum Im/Re Ratio =    0.000000
      Wannier Function Num:  251       Maximum Im/Re Ratio =    0.000000
      Wannier Function Num:  252       Maximum Im/Re Ratio =    0.000000
      Wannier Function Num:  253       Maximum Im/Re Ratio =    0.000000
      Wannier Function Num:  254       Maximum Im/Re Ratio =    0.000000
      Wannier Function Num:  255       Maximum Im/Re Ratio =    0.000000
      Wannier Function Num:  256       Maximum Im/Re Ratio =    0.000000
  
 Total Execution Time        1285.836 (sec)

 *===========================================================================*
 |                             TIMING INFORMATION                            |
 *===========================================================================*
 |    Tag                                                Ncalls      Time (s)|
 |---------------------------------------------------------------------------|
 |kmesh: get                                        :         1         0.007|
 |overlap: read                                     :         1         0.342|
 |wann: main_gamma                                  :         1        71.713|
 |plot: main                                        :         1         2.488|
 *---------------------------------------------------------------------------*
 
 All done: wannier90 exiting
