
     Program PHONON v.7.1 starts on  3Aug2022 at 17:25:42 

     This program is part of the open-source Quantum ESPRESSO suite
     for quantum simulation of materials; please cite
         "P. Giannozzi et al., J. Phys.:Condens. Matter 21 395502 (2009);
         "P. Giannozzi et al., J. Phys.:Condens. Matter 29 465901 (2017);
         "P. Giannozzi et al., J. Chem. Phys. 152 154105 (2020);
          URL http://www.quantum-espresso.org", 
     in publications or presentations arising from this work. More details at
     http://www.quantum-espresso.org/quote

     Parallel version (MPI), running on    14 processors

     MPI processes distributed on     1 nodes
     R & G space division:  proc/nbgrp/npool/nimage =      14
     11240 MiB available memory on the printing compute node when the environment starts
 
     Reading input from ph.phi
      Title line not specified: using 'default'.

     Reading xml data from directory:

     /home/mstojkovic/Documents/code/koopmans/tests/tmp/test_dftph_tio20/TMP/kc.save/

     IMPORTANT: XC functional enforced from input :
     Exchange-correlation= PBESOL
                           (   1   4  10   8   0   0   0)
     Any further DFT definition will be discarded
     Please, verify this is what you really want

 
     Parallelization info
     --------------------
     sticks:   dense  smooth     PW     G-vecs:    dense   smooth      PW
     Min          69      69     20                 1031     1031     180
     Max          71      71     21                 1032     1032     183
     Sum         973     973    293                14435    14435    2537
 
     Using Slab Decomposition
 

     Check: negative core charge=   -0.000566
     Reading collected, re-writing distributed wavefunctions

     Calculation of q =    0.0000000   0.0000000   0.0000000

     default                                                                    

     bravais-lattice index     =            0
     lattice parameter (alat)  =       8.6927  a.u.
     unit-cell volume          =     421.2445 (a.u.)^3
     number of atoms/cell      =            6
     number of atomic types    =            2
     kinetic-energy cut-off    =      40.0000  Ry
     charge density cut-off    =     160.0000  Ry
     convergence threshold     =      1.0E-14
     beta                      =       0.7000
     number of iterations used =            4
     Exchange-correlation= PBESOL
                           (   1   4  10   8   0   0   0)


     celldm(1)=    8.69274  celldm(2)=    0.00000  celldm(3)=    0.00000
     celldm(4)=    0.00000  celldm(5)=    0.00000  celldm(6)=    0.00000

     crystal axes: (cart. coord. in units of alat)
               a(1) = (  1.0000  0.0000  0.0000 )  
               a(2) = (  0.0000  1.0000  0.0000 )  
               a(3) = (  0.0000  0.0000  0.6413 )  

     reciprocal axes: (cart. coord. in units 2 pi/alat)
               b(1) = (  1.0000  0.0000  0.0000 )  
               b(2) = (  0.0000  1.0000  0.0000 )  
               b(3) = (  0.0000  0.0000  1.5593 )  


     Atoms inside the unit cell: 

     Cartesian axes

     site n.  atom      mass           positions (alat units)
        1     Ti  15.9990   tau(    1) = (    0.00000    0.00000    0.00000  )
        2     Ti  15.9990   tau(    2) = (    0.50000    0.50000    0.32065  )
        3     O   47.8670   tau(    3) = (    0.30000    0.30000    0.00000  )
        4     O   47.8670   tau(    4) = (    0.70000    0.70000    0.00000  )
        5     O   47.8670   tau(    5) = (    0.20000    0.80000    0.32065  )
        6     O   47.8670   tau(    6) = (    0.80000    0.20000    0.32065  )

     Computing dynamical matrix for 
                    q = (   0.0000000   0.0000000   0.0000000 )
 
     17 Sym.Ops. (with q -> -q+G )


     G cutoff =  306.2483  (   1032 G-vectors)     FFT grid: ( 36, 36, 24)
     number of k points=     6
                       cart. coord. in units 2pi/alat
        k(    1) = (   0.0000000   0.0000000   0.0000000), wk =   0.2500000
        k(    2) = (   0.0000000   0.0000000  -0.7796610), wk =   0.2500000
        k(    3) = (   0.0000000  -0.5000000   0.0000000), wk =   0.5000000
        k(    4) = (   0.0000000  -0.5000000  -0.7796610), wk =   0.5000000
        k(    5) = (  -0.5000000  -0.5000000   0.0000000), wk =   0.2500000
        k(    6) = (  -0.5000000  -0.5000000  -0.7796610), wk =   0.2500000

     PseudoPot. # 1 for Ti read from file:
     /home/mstojkovic/Documents/code/koopmans/pseudos/pseudo_dojo_standard_v0.4.1/pbesol/Ti.upf
     MD5 check sum: c7cef475492d2ee3d0561e3a3e59fcd4
     Pseudo is Norm-conserving + core correction, Zval = 12.0
     Generated using ONCVPSP code by D. R. Hamann
     Using radial grid of 1586 points,  6 beta functions with: 
                l(1) =   0
                l(2) =   0
                l(3) =   1
                l(4) =   1
                l(5) =   2
                l(6) =   2

     PseudoPot. # 2 for O  read from file:
     /home/mstojkovic/Documents/code/koopmans/pseudos/pseudo_dojo_standard_v0.4.1/pbesol/O.upf
     MD5 check sum: f226cbcd508cec715ff87a8f75a1dfba
     Pseudo is Norm-conserving + core correction, Zval =  6.0
     Generated using ONCVPSP code by D. R. Hamann
     Using radial grid of  936 points,  5 beta functions with: 
                l(1) =   0
                l(2) =   0
                l(3) =   1
                l(4) =   1
                l(5) =   2

     Mode symmetry, D_4h(4/mmm) point group:


     Electric field:
     Dielectric constant
     Born effective charges as d Force / d E


     Atomic displacements:
     There are   13 irreducible representations

     Representation     1      1 modes -  To be done

     Representation     2      1 modes -  To be done

     Representation     3      1 modes -  To be done

     Representation     4      1 modes -  To be done

     Representation     5      2 modes -  To be done

     Representation     6      1 modes -  To be done

     Representation     7      1 modes -  To be done

     Representation     8      1 modes -  To be done

     Representation     9      1 modes -  To be done

     Representation    10      2 modes -  To be done

     Representation    11      2 modes -  To be done

     Representation    12      2 modes -  To be done

     Representation    13      2 modes -  To be done



     Alpha used in Ewald sum =   1.5000
     PHONON       :      0.15s CPU      0.16s WALL


     Electric Fields Calculation

      iter #   1 total cpu time :     1.3 secs   av.it.:   8.1
      thresh= 1.000E-02 alpha_mix =  0.700 |ddv_scf|^2 =  3.159E-07

      iter #   2 total cpu time :     1.9 secs   av.it.:  14.0
      thresh= 5.620E-05 alpha_mix =  0.700 |ddv_scf|^2 =  1.044E-06

      iter #   3 total cpu time :     2.3 secs   av.it.:  11.5
      thresh= 1.022E-04 alpha_mix =  0.700 |ddv_scf|^2 =  1.172E-08

      iter #   4 total cpu time :     2.8 secs   av.it.:  12.8
      thresh= 1.083E-05 alpha_mix =  0.700 |ddv_scf|^2 =  2.993E-10

      iter #   5 total cpu time :     3.3 secs   av.it.:  13.6
      thresh= 1.730E-06 alpha_mix =  0.700 |ddv_scf|^2 =  1.038E-11

      iter #   6 total cpu time :     3.8 secs   av.it.:  13.7
      thresh= 3.223E-07 alpha_mix =  0.700 |ddv_scf|^2 =  2.042E-13

      iter #   7 total cpu time :     4.3 secs   av.it.:  13.9
      thresh= 4.519E-08 alpha_mix =  0.700 |ddv_scf|^2 =  8.153E-15

     End of electric fields calculation

          Dielectric constant in cartesian axis 

          (      10.191112245       0.000000000       0.000000000 )
          (       0.000000000      10.191112245       0.000000000 )
          (       0.000000000       0.000000000      11.768224749 )

          Effective charges (d Force / dE) in cartesian axis without acoustic sum rule applied (asr)

           atom      1   Ti Mean Z*:        8.85472
      Ex  (        8.40195        1.01061        0.00000 )
      Ey  (        1.01061        8.40195        0.00000 )
      Ez  (        0.00000        0.00000        9.76027 )
           atom      2   Ti Mean Z*:        8.85472
      Ex  (        8.40195       -1.01061        0.00000 )
      Ey  (       -1.01061        8.40195        0.00000 )
      Ez  (        0.00000        0.00000        9.76027 )
           atom      3   O  Mean Z*:       -4.78119
      Ex  (       -4.46083       -2.55591       -0.00000 )
      Ey  (       -2.55591       -4.46083        0.00000 )
      Ez  (       -0.00000       -0.00000       -5.42190 )
           atom      4   O  Mean Z*:       -4.78119
      Ex  (       -4.46083       -2.55591        0.00000 )
      Ey  (       -2.55591       -4.46083       -0.00000 )
      Ez  (        0.00000       -0.00000       -5.42190 )
           atom      5   O  Mean Z*:       -4.78119
      Ex  (       -4.46083        2.55591        0.00000 )
      Ey  (        2.55591       -4.46083        0.00000 )
      Ez  (       -0.00000        0.00000       -5.42190 )
           atom      6   O  Mean Z*:       -4.78119
      Ex  (       -4.46083        2.55591       -0.00000 )
      Ey  (        2.55591       -4.46083       -0.00000 )
      Ez  (        0.00000        0.00000       -5.42190 )

          Effective charges Sum: Mean:       -1.41531
             -1.03943       -0.00000        0.00000
              0.00000       -1.03943        0.00000
             -0.00000       -0.00000       -2.16706

          Effective charges (d Force / dE) in cartesian axis with asr applied: 
           atom      1   Ti Mean Z*:        9.09061
      E*x (        8.57518        1.01061        0.00000 )
      E*y (        1.01061        8.57518        0.00000 )
      E*z (       -0.00000       -0.00000       10.12145 )
           atom      2   Ti Mean Z*:        9.09061
      E*x (        8.57518       -1.01061        0.00000 )
      E*y (       -1.01061        8.57518        0.00000 )
      E*z (       -0.00000       -0.00000       10.12145 )
           atom      3   O  Mean Z*:       -4.54530
      E*x (       -4.28759       -2.55591       -0.00000 )
      E*y (       -2.55591       -4.28759        0.00000 )
      E*z (       -0.00000       -0.00000       -5.06072 )
           atom      4   O  Mean Z*:       -4.54530
      E*x (       -4.28759       -2.55591        0.00000 )
      E*y (       -2.55591       -4.28759       -0.00000 )
      E*z (        0.00000       -0.00000       -5.06072 )
           atom      5   O  Mean Z*:       -4.54530
      E*x (       -4.28759        2.55591        0.00000 )
      E*y (        2.55591       -4.28759        0.00000 )
      E*z (       -0.00000        0.00000       -5.06072 )
           atom      6   O  Mean Z*:       -4.54530
      E*x (       -4.28759        2.55591       -0.00000 )
      E*y (        2.55591       -4.28759       -0.00000 )
      E*z (        0.00000        0.00000       -5.06072 )


     Representation #   1 mode #   1

     Self-consistent Calculation

      iter #   1 total cpu time :     4.7 secs   av.it.:   7.7
      thresh= 1.000E-02 alpha_mix =  0.700 |ddv_scf|^2 =  4.990E-06

      iter #   2 total cpu time :     4.9 secs   av.it.:  12.0
      thresh= 2.234E-04 alpha_mix =  0.700 |ddv_scf|^2 =  5.780E-07

      iter #   3 total cpu time :     5.0 secs   av.it.:  12.2
      thresh= 7.603E-05 alpha_mix =  0.700 |ddv_scf|^2 =  7.458E-07

      iter #   4 total cpu time :     5.2 secs   av.it.:  11.3
      thresh= 8.636E-05 alpha_mix =  0.700 |ddv_scf|^2 =  5.706E-09

      iter #   5 total cpu time :     5.4 secs   av.it.:  11.3
      thresh= 7.554E-06 alpha_mix =  0.700 |ddv_scf|^2 =  4.656E-11

      iter #   6 total cpu time :     5.5 secs   av.it.:  11.3
      thresh= 6.823E-07 alpha_mix =  0.700 |ddv_scf|^2 =  3.146E-13

      iter #   7 total cpu time :     5.8 secs   av.it.:  12.0
      thresh= 5.608E-08 alpha_mix =  0.700 |ddv_scf|^2 =  1.813E-14

      iter #   8 total cpu time :     5.9 secs   av.it.:  12.3
      thresh= 1.346E-08 alpha_mix =  0.700 |ddv_scf|^2 =  9.534E-17

     End of self-consistent calculation

     Convergence has been achieved 


     Representation #   2 mode #   2

     Self-consistent Calculation

      iter #   1 total cpu time :     6.0 secs   av.it.:   7.7
      thresh= 1.000E-02 alpha_mix =  0.700 |ddv_scf|^2 =  3.150E-05

      iter #   2 total cpu time :     6.2 secs   av.it.:  10.8
      thresh= 5.613E-04 alpha_mix =  0.700 |ddv_scf|^2 =  5.183E-06

      iter #   3 total cpu time :     6.3 secs   av.it.:  10.3
      thresh= 2.277E-04 alpha_mix =  0.700 |ddv_scf|^2 =  2.132E-08

      iter #   4 total cpu time :     6.5 secs   av.it.:  10.0
      thresh= 1.460E-05 alpha_mix =  0.700 |ddv_scf|^2 =  3.017E-11

      iter #   5 total cpu time :     6.6 secs   av.it.:  11.0
      thresh= 5.493E-07 alpha_mix =  0.700 |ddv_scf|^2 =  3.043E-13

      iter #   6 total cpu time :     6.8 secs   av.it.:  10.0
      thresh= 5.516E-08 alpha_mix =  0.700 |ddv_scf|^2 =  2.004E-15

     End of self-consistent calculation

     Convergence has been achieved 


     Representation #   3 mode #   3

     Self-consistent Calculation

      iter #   1 total cpu time :     6.9 secs   av.it.:   6.8
      thresh= 1.000E-02 alpha_mix =  0.700 |ddv_scf|^2 =  3.193E-06

      iter #   2 total cpu time :     7.1 secs   av.it.:  10.5
      thresh= 1.787E-04 alpha_mix =  0.700 |ddv_scf|^2 =  7.319E-08

      iter #   3 total cpu time :     7.2 secs   av.it.:  10.2
      thresh= 2.705E-05 alpha_mix =  0.700 |ddv_scf|^2 =  6.049E-09

      iter #   4 total cpu time :     7.4 secs   av.it.:   9.8
      thresh= 7.777E-06 alpha_mix =  0.700 |ddv_scf|^2 =  6.464E-12

      iter #   5 total cpu time :     7.5 secs   av.it.:  11.2
      thresh= 2.542E-07 alpha_mix =  0.700 |ddv_scf|^2 =  1.027E-14

      iter #   6 total cpu time :     7.7 secs   av.it.:  10.3
      thresh= 1.014E-08 alpha_mix =  0.700 |ddv_scf|^2 =  7.592E-16

     End of self-consistent calculation

     Convergence has been achieved 


     Representation #   4 mode #   4

     Self-consistent Calculation

      iter #   1 total cpu time :     7.8 secs   av.it.:   8.0
      thresh= 1.000E-02 alpha_mix =  0.700 |ddv_scf|^2 =  1.368E-04

      iter #   2 total cpu time :     7.9 secs   av.it.:  11.3
      thresh= 1.169E-03 alpha_mix =  0.700 |ddv_scf|^2 =  6.340E-04

      iter #   3 total cpu time :     8.1 secs   av.it.:  10.3
      thresh= 2.518E-03 alpha_mix =  0.700 |ddv_scf|^2 =  2.004E-06

      iter #   4 total cpu time :     8.2 secs   av.it.:  11.3
      thresh= 1.416E-04 alpha_mix =  0.700 |ddv_scf|^2 =  2.301E-07

      iter #   5 total cpu time :     8.4 secs   av.it.:  10.8
      thresh= 4.797E-05 alpha_mix =  0.700 |ddv_scf|^2 =  9.486E-09

      iter #   6 total cpu time :     8.5 secs   av.it.:  10.8
      thresh= 9.740E-06 alpha_mix =  0.700 |ddv_scf|^2 =  4.858E-11

      iter #   7 total cpu time :     8.7 secs   av.it.:  11.0
      thresh= 6.970E-07 alpha_mix =  0.700 |ddv_scf|^2 =  4.503E-13

      iter #   8 total cpu time :     8.8 secs   av.it.:  11.2
      thresh= 6.710E-08 alpha_mix =  0.700 |ddv_scf|^2 =  5.949E-15

     End of self-consistent calculation

     Convergence has been achieved 


     Representation #   5 modes #   5   6

     Self-consistent Calculation

      iter #   1 total cpu time :     9.1 secs   av.it.:   7.7
      thresh= 1.000E-02 alpha_mix =  0.700 |ddv_scf|^2 =  9.937E-07

      iter #   2 total cpu time :     9.4 secs   av.it.:  13.0
      thresh= 9.968E-05 alpha_mix =  0.700 |ddv_scf|^2 =  1.830E-08

      iter #   3 total cpu time :     9.7 secs   av.it.:  12.8
      thresh= 1.353E-05 alpha_mix =  0.700 |ddv_scf|^2 =  1.360E-09

      iter #   4 total cpu time :    10.0 secs   av.it.:  11.5
      thresh= 3.688E-06 alpha_mix =  0.700 |ddv_scf|^2 =  1.145E-12

      iter #   5 total cpu time :    10.4 secs   av.it.:  13.8
      thresh= 1.070E-07 alpha_mix =  0.700 |ddv_scf|^2 =  1.779E-15

     End of self-consistent calculation

     Convergence has been achieved 


     Representation #   6 mode #   7

     Self-consistent Calculation

      iter #   1 total cpu time :    10.5 secs   av.it.:   7.5
      thresh= 1.000E-02 alpha_mix =  0.700 |ddv_scf|^2 =  3.474E-06

      iter #   2 total cpu time :    10.9 secs   av.it.:  11.7
      thresh= 1.864E-04 alpha_mix =  0.700 |ddv_scf|^2 =  1.128E-07

      iter #   3 total cpu time :    11.0 secs   av.it.:  11.8
      thresh= 3.358E-05 alpha_mix =  0.700 |ddv_scf|^2 =  9.736E-09

      iter #   4 total cpu time :    11.2 secs   av.it.:  11.7
      thresh= 9.867E-06 alpha_mix =  0.700 |ddv_scf|^2 =  5.098E-10

      iter #   5 total cpu time :    11.3 secs   av.it.:  11.7
      thresh= 2.258E-06 alpha_mix =  0.700 |ddv_scf|^2 =  8.642E-13

      iter #   6 total cpu time :    11.5 secs   av.it.:  12.0
      thresh= 9.296E-08 alpha_mix =  0.700 |ddv_scf|^2 =  1.837E-15

     End of self-consistent calculation

     Convergence has been achieved 


     Representation #   7 mode #   8

     Self-consistent Calculation

      iter #   1 total cpu time :    11.6 secs   av.it.:   8.2
      thresh= 1.000E-02 alpha_mix =  0.700 |ddv_scf|^2 =  1.421E-05

      iter #   2 total cpu time :    11.8 secs   av.it.:  11.8
      thresh= 3.770E-04 alpha_mix =  0.700 |ddv_scf|^2 =  1.434E-06

      iter #   3 total cpu time :    12.0 secs   av.it.:  11.8
      thresh= 1.198E-04 alpha_mix =  0.700 |ddv_scf|^2 =  5.371E-09

      iter #   4 total cpu time :    12.1 secs   av.it.:  11.8
      thresh= 7.329E-06 alpha_mix =  0.700 |ddv_scf|^2 =  1.797E-11

      iter #   5 total cpu time :    12.3 secs   av.it.:  11.7
      thresh= 4.239E-07 alpha_mix =  0.700 |ddv_scf|^2 =  8.053E-13

      iter #   6 total cpu time :    12.4 secs   av.it.:  12.0
      thresh= 8.974E-08 alpha_mix =  0.700 |ddv_scf|^2 =  4.470E-15

     End of self-consistent calculation

     Convergence has been achieved 


     Representation #   8 mode #   9

     Self-consistent Calculation

      iter #   1 total cpu time :    12.6 secs   av.it.:   7.7
      thresh= 1.000E-02 alpha_mix =  0.700 |ddv_scf|^2 =  6.989E-06

      iter #   2 total cpu time :    12.7 secs   av.it.:  11.5
      thresh= 2.644E-04 alpha_mix =  0.700 |ddv_scf|^2 =  4.260E-07

      iter #   3 total cpu time :    12.9 secs   av.it.:  11.7
      thresh= 6.527E-05 alpha_mix =  0.700 |ddv_scf|^2 =  1.448E-08

      iter #   4 total cpu time :    13.0 secs   av.it.:  11.8
      thresh= 1.203E-05 alpha_mix =  0.700 |ddv_scf|^2 =  7.788E-10

      iter #   5 total cpu time :    13.2 secs   av.it.:  11.5
      thresh= 2.791E-06 alpha_mix =  0.700 |ddv_scf|^2 =  1.343E-12

      iter #   6 total cpu time :    13.3 secs   av.it.:  11.7
      thresh= 1.159E-07 alpha_mix =  0.700 |ddv_scf|^2 =  4.545E-15

     End of self-consistent calculation

     Convergence has been achieved 


     Representation #   9 mode #  10

     Self-consistent Calculation

      iter #   1 total cpu time :    13.5 secs   av.it.:   8.5
      thresh= 1.000E-02 alpha_mix =  0.700 |ddv_scf|^2 =  1.733E-05

      iter #   2 total cpu time :    13.6 secs   av.it.:  11.7
      thresh= 4.163E-04 alpha_mix =  0.700 |ddv_scf|^2 =  2.289E-06

      iter #   3 total cpu time :    13.8 secs   av.it.:  11.7
      thresh= 1.513E-04 alpha_mix =  0.700 |ddv_scf|^2 =  4.371E-09

      iter #   4 total cpu time :    13.9 secs   av.it.:  11.8
      thresh= 6.611E-06 alpha_mix =  0.700 |ddv_scf|^2 =  4.930E-11

      iter #   5 total cpu time :    14.1 secs   av.it.:  12.0
      thresh= 7.022E-07 alpha_mix =  0.700 |ddv_scf|^2 =  2.789E-12

      iter #   6 total cpu time :    14.3 secs   av.it.:  11.8
      thresh= 1.670E-07 alpha_mix =  0.700 |ddv_scf|^2 =  1.552E-14

      iter #   7 total cpu time :    14.4 secs   av.it.:  11.0
      thresh= 1.246E-08 alpha_mix =  0.700 |ddv_scf|^2 =  8.486E-16

     End of self-consistent calculation

     Convergence has been achieved 


     Representation #  10 modes #  11  12

     Self-consistent Calculation

      iter #   1 total cpu time :    14.7 secs   av.it.:   8.5
      thresh= 1.000E-02 alpha_mix =  0.700 |ddv_scf|^2 =  3.059E-06

      iter #   2 total cpu time :    15.0 secs   av.it.:  14.2
      thresh= 1.749E-04 alpha_mix =  0.700 |ddv_scf|^2 =  2.185E-06

      iter #   3 total cpu time :    15.3 secs   av.it.:  13.6
      thresh= 1.478E-04 alpha_mix =  0.700 |ddv_scf|^2 =  8.189E-07

      iter #   4 total cpu time :    15.7 secs   av.it.:  13.0
      thresh= 9.049E-05 alpha_mix =  0.700 |ddv_scf|^2 =  6.066E-09

      iter #   5 total cpu time :    16.1 secs   av.it.:  13.8
      thresh= 7.789E-06 alpha_mix =  0.700 |ddv_scf|^2 =  1.197E-10

      iter #   6 total cpu time :    16.8 secs   av.it.:  14.0
      thresh= 1.094E-06 alpha_mix =  0.700 |ddv_scf|^2 =  7.680E-13

      iter #   7 total cpu time :    17.1 secs   av.it.:  14.2
      thresh= 8.763E-08 alpha_mix =  0.700 |ddv_scf|^2 =  5.054E-13

      iter #   8 total cpu time :    17.4 secs   av.it.:  13.1
      thresh= 7.109E-08 alpha_mix =  0.700 |ddv_scf|^2 =  2.384E-15

     End of self-consistent calculation

     Convergence has been achieved 


     Representation #  11 modes #  13  14

     Self-consistent Calculation

      iter #   1 total cpu time :    17.7 secs   av.it.:   9.7
      thresh= 1.000E-02 alpha_mix =  0.700 |ddv_scf|^2 =  2.500E-05

      iter #   2 total cpu time :    18.1 secs   av.it.:  14.5
      thresh= 5.000E-04 alpha_mix =  0.700 |ddv_scf|^2 =  5.813E-05

      iter #   3 total cpu time :    18.4 secs   av.it.:  13.2
      thresh= 7.624E-04 alpha_mix =  0.700 |ddv_scf|^2 =  2.504E-06

      iter #   4 total cpu time :    18.8 secs   av.it.:  13.3
      thresh= 1.582E-04 alpha_mix =  0.700 |ddv_scf|^2 =  6.719E-10

      iter #   5 total cpu time :    19.1 secs   av.it.:  14.5
      thresh= 2.592E-06 alpha_mix =  0.700 |ddv_scf|^2 =  2.170E-10

      iter #   6 total cpu time :    19.5 secs   av.it.:  14.2
      thresh= 1.473E-06 alpha_mix =  0.700 |ddv_scf|^2 =  1.640E-12

      iter #   7 total cpu time :    19.8 secs   av.it.:  14.3
      thresh= 1.281E-07 alpha_mix =  0.700 |ddv_scf|^2 =  1.711E-13

      iter #   8 total cpu time :    20.2 secs   av.it.:  14.0
      thresh= 4.136E-08 alpha_mix =  0.700 |ddv_scf|^2 =  3.865E-15

     End of self-consistent calculation

     Convergence has been achieved 


     Representation #  12 modes #  15  16

     Self-consistent Calculation

      iter #   1 total cpu time :    20.4 secs   av.it.:   7.9
      thresh= 1.000E-02 alpha_mix =  0.700 |ddv_scf|^2 =  1.339E-06

      iter #   2 total cpu time :    21.0 secs   av.it.:  14.0
      thresh= 1.157E-04 alpha_mix =  0.700 |ddv_scf|^2 =  2.585E-07

      iter #   3 total cpu time :    21.3 secs   av.it.:  13.7
      thresh= 5.084E-05 alpha_mix =  0.700 |ddv_scf|^2 =  2.989E-07

      iter #   4 total cpu time :    21.7 secs   av.it.:  12.8
      thresh= 5.467E-05 alpha_mix =  0.700 |ddv_scf|^2 =  9.931E-09

      iter #   5 total cpu time :    22.0 secs   av.it.:  13.7
      thresh= 9.966E-06 alpha_mix =  0.700 |ddv_scf|^2 =  3.208E-10

      iter #   6 total cpu time :    22.3 secs   av.it.:  13.7
      thresh= 1.791E-06 alpha_mix =  0.700 |ddv_scf|^2 =  1.906E-12

      iter #   7 total cpu time :    22.7 secs   av.it.:  13.5
      thresh= 1.380E-07 alpha_mix =  0.700 |ddv_scf|^2 =  4.255E-14

      iter #   8 total cpu time :    23.0 secs   av.it.:  14.0
      thresh= 2.063E-08 alpha_mix =  0.700 |ddv_scf|^2 =  2.825E-16

     End of self-consistent calculation

     Convergence has been achieved 


     Representation #  13 modes #  17  18

     Self-consistent Calculation

      iter #   1 total cpu time :    23.3 secs   av.it.:   9.5
      thresh= 1.000E-02 alpha_mix =  0.700 |ddv_scf|^2 =  1.006E-05

      iter #   2 total cpu time :    23.7 secs   av.it.:  14.4
      thresh= 3.172E-04 alpha_mix =  0.700 |ddv_scf|^2 =  1.552E-05

      iter #   3 total cpu time :    24.0 secs   av.it.:  13.3
      thresh= 3.939E-04 alpha_mix =  0.700 |ddv_scf|^2 =  2.136E-06

      iter #   4 total cpu time :    24.3 secs   av.it.:  13.5
      thresh= 1.462E-04 alpha_mix =  0.700 |ddv_scf|^2 =  3.877E-09

      iter #   5 total cpu time :    24.7 secs   av.it.:  14.2
      thresh= 6.227E-06 alpha_mix =  0.700 |ddv_scf|^2 =  3.829E-10

      iter #   6 total cpu time :    25.0 secs   av.it.:  13.8
      thresh= 1.957E-06 alpha_mix =  0.700 |ddv_scf|^2 =  4.509E-12

      iter #   7 total cpu time :    25.4 secs   av.it.:  13.6
      thresh= 2.123E-07 alpha_mix =  0.700 |ddv_scf|^2 =  2.515E-13

      iter #   8 total cpu time :    25.9 secs   av.it.:  13.9
      thresh= 5.015E-08 alpha_mix =  0.700 |ddv_scf|^2 =  1.415E-15

     End of self-consistent calculation

     Convergence has been achieved 
 
     Number of q in the star =    1
     List of q in the star:
          1   0.000000000   0.000000000   0.000000000

          Dielectric constant in cartesian axis 

          (      10.191112245       0.000000000       0.000000000 )
          (       0.000000000      10.191112245       0.000000000 )
          (       0.000000000       0.000000000      11.768224749 )

          Effective charges (d Force / dE) in cartesian axis without acoustic sum rule applied (asr)

           atom      1   Ti Mean Z*:        8.85472
      Ex  (        8.40195        1.01061        0.00000 )
      Ey  (        1.01061        8.40195        0.00000 )
      Ez  (        0.00000        0.00000        9.76027 )
           atom      2   Ti Mean Z*:        8.85472
      Ex  (        8.40195       -1.01061        0.00000 )
      Ey  (       -1.01061        8.40195        0.00000 )
      Ez  (        0.00000        0.00000        9.76027 )
           atom      3   O  Mean Z*:       -4.78119
      Ex  (       -4.46083       -2.55591       -0.00000 )
      Ey  (       -2.55591       -4.46083        0.00000 )
      Ez  (       -0.00000       -0.00000       -5.42190 )
           atom      4   O  Mean Z*:       -4.78119
      Ex  (       -4.46083       -2.55591        0.00000 )
      Ey  (       -2.55591       -4.46083       -0.00000 )
      Ez  (        0.00000       -0.00000       -5.42190 )
           atom      5   O  Mean Z*:       -4.78119
      Ex  (       -4.46083        2.55591        0.00000 )
      Ey  (        2.55591       -4.46083        0.00000 )
      Ez  (       -0.00000        0.00000       -5.42190 )
           atom      6   O  Mean Z*:       -4.78119
      Ex  (       -4.46083        2.55591       -0.00000 )
      Ey  (        2.55591       -4.46083       -0.00000 )
      Ez  (        0.00000        0.00000       -5.42190 )

          Effective charges Sum: Mean:       -1.41531
             -1.03943       -0.00000        0.00000
              0.00000       -1.03943        0.00000
             -0.00000       -0.00000       -2.16706

          Effective charges (d Force / dE) in cartesian axis with asr applied: 
           atom      1   Ti Mean Z*:        9.09061
      E*x (        8.57518        1.01061        0.00000 )
      E*y (        1.01061        8.57518        0.00000 )
      E*z (       -0.00000       -0.00000       10.12145 )
           atom      2   Ti Mean Z*:        9.09061
      E*x (        8.57518       -1.01061        0.00000 )
      E*y (       -1.01061        8.57518        0.00000 )
      E*z (       -0.00000       -0.00000       10.12145 )
           atom      3   O  Mean Z*:       -4.54530
      E*x (       -4.28759       -2.55591       -0.00000 )
      E*y (       -2.55591       -4.28759        0.00000 )
      E*z (       -0.00000       -0.00000       -5.06072 )
           atom      4   O  Mean Z*:       -4.54530
      E*x (       -4.28759       -2.55591        0.00000 )
      E*y (       -2.55591       -4.28759       -0.00000 )
      E*z (        0.00000       -0.00000       -5.06072 )
           atom      5   O  Mean Z*:       -4.54530
      E*x (       -4.28759        2.55591        0.00000 )
      E*y (        2.55591       -4.28759        0.00000 )
      E*z (       -0.00000        0.00000       -5.06072 )
           atom      6   O  Mean Z*:       -4.54530
      E*x (       -4.28759        2.55591       -0.00000 )
      E*y (        2.55591       -4.28759       -0.00000 )
      E*z (        0.00000        0.00000       -5.06072 )

     Diagonalizing the dynamical matrix

     q = (    0.000000000   0.000000000   0.000000000 ) 

 **************************************************************************
     freq (    1) =     -16.828075 [THz] =    -561.324172 [cm-1]
     freq (    2) =     -16.368206 [THz] =    -545.984573 [cm-1]
     freq (    3) =     -16.368206 [THz] =    -545.984573 [cm-1]
     freq (    4) =     -15.741766 [THz] =    -525.088793 [cm-1]
     freq (    5) =      -2.002269 [THz] =     -66.788517 [cm-1]
     freq (    6) =      -1.412741 [THz] =     -47.123963 [cm-1]
     freq (    7) =      -1.412741 [THz] =     -47.123963 [cm-1]
     freq (    8) =       3.592091 [THz] =     119.819260 [cm-1]
     freq (    9) =       5.731042 [THz] =     191.166997 [cm-1]
     freq (   10) =       5.731042 [THz] =     191.166997 [cm-1]
     freq (   11) =       6.747970 [THz] =     225.088034 [cm-1]
     freq (   12) =       6.954187 [THz] =     231.966711 [cm-1]
     freq (   13) =       6.954187 [THz] =     231.966711 [cm-1]
     freq (   14) =       7.348687 [THz] =     245.125818 [cm-1]
     freq (   15) =       7.488462 [THz] =     249.788189 [cm-1]
     freq (   16) =      12.075994 [THz] =     402.811797 [cm-1]
     freq (   17) =      20.242949 [THz] =     675.232092 [cm-1]
     freq (   18) =      20.242949 [THz] =     675.232092 [cm-1]
 **************************************************************************

     Mode symmetry, D_4h(4/mmm) point group:

     freq (   1-   1) =       -561.3  [cm-1]   --> A_2u X_4' M_4'  I  
     freq (   2-   3) =       -546.0  [cm-1]   --> E_u  X_5' M_5'  I  
     freq (   4-   4) =       -525.1  [cm-1]   --> B_1u X_2' M_2'     
     freq (   5-   5) =        -66.8  [cm-1]   --> A_2u X_4' M_4'  I  
     freq (   6-   7) =        -47.1  [cm-1]   --> E_u  X_5' M_5'  I  
     freq (   8-   8) =        119.8  [cm-1]   --> B_1g X_2  M_2   R  
     freq (   9-  10) =        191.2  [cm-1]   --> E_u  X_5' M_5'  I  
     freq (  11-  11) =        225.1  [cm-1]   --> B_1u X_2' M_2'     
     freq (  12-  13) =        232.0  [cm-1]   --> E_g  X_5  M_5   R  
     freq (  14-  14) =        245.1  [cm-1]   --> A_2g X_4  M_4      
     freq (  15-  15) =        249.8  [cm-1]   --> A_1g X_1  M_1   R  
     freq (  16-  16) =        402.8  [cm-1]   --> B_2g X_3  M_3   R  
     freq (  17-  18) =        675.2  [cm-1]   --> E_u  X_5' M_5'  I  
 
     PHONON       :     21.34s CPU     25.96s WALL

     INITIALIZATION: 
     phq_setup    :      0.00s CPU      0.00s WALL (       1 calls)
     phq_init     :      0.07s CPU      0.07s WALL (       1 calls)
 
     phq_init     :      0.07s CPU      0.07s WALL (       1 calls)
     set_drhoc    :      0.02s CPU      0.02s WALL (       3 calls)
     init_vloc    :      0.00s CPU      0.00s WALL (       1 calls)
     init_us_1    :      0.00s CPU      0.00s WALL (       1 calls)
     init_us_2    :      0.04s CPU      0.04s WALL (     774 calls)
 
     DIELECTRIC CONSTANT AND EFFECTIVE CHARGES:
     solve_e      :      3.55s CPU      4.15s WALL (       1 calls)
     dielec       :      0.00s CPU      0.00s WALL (       1 calls)
     zstar_eu     :      0.25s CPU      0.29s WALL (       1 calls)
 
     DYNAMICAL MATRIX:
     dynmat0      :      0.05s CPU      0.05s WALL (       1 calls)
     phqscf       :     17.38s CPU     21.36s WALL (       1 calls)
     dynmatrix    :      0.00s CPU      0.00s WALL (       1 calls)
 
     phqscf       :     17.38s CPU     21.36s WALL (       1 calls)
     solve_linter :     17.32s CPU     21.28s WALL (      13 calls)
     drhodv       :      0.06s CPU      0.07s WALL (      13 calls)
 
     dynmat0      :      0.05s CPU      0.05s WALL (       1 calls)
     dynmat_us    :      0.02s CPU      0.02s WALL (       1 calls)
     d2ionq       :      0.00s CPU      0.00s WALL (       1 calls)
     dynmatcc     :      0.02s CPU      0.02s WALL (       1 calls)
 
     dynmat_us    :      0.02s CPU      0.02s WALL (       1 calls)
 
     phqscf       :     17.38s CPU     21.36s WALL (       1 calls)
     solve_linter :     17.32s CPU     21.28s WALL (      13 calls)
 
     solve_linter :     17.32s CPU     21.28s WALL (      13 calls)
     dvqpsi_us    :      0.45s CPU      0.52s WALL (     216 calls)
     sth_kernel   :     18.30s CPU     22.32s WALL (      97 calls)
     apply_dpot_b :      0.90s CPU      1.09s WALL (     762 calls)
     ortho        :      0.05s CPU      0.06s WALL (     906 calls)
     cgsolve      :     16.91s CPU     19.95s WALL (     906 calls)
     incdrhoscf   :      1.06s CPU      1.26s WALL (     888 calls)
     dv_of_drho   :      0.07s CPU      0.09s WALL (     148 calls)
     mix_pot      :      0.04s CPU      0.06s WALL (      97 calls)
     psymdvscf    :      1.25s CPU      1.27s WALL (      90 calls)
 
     dvqpsi_us    :      0.45s CPU      0.52s WALL (     216 calls)
     dvqpsi_us_on :      0.14s CPU      0.15s WALL (     216 calls)
 
     cgsolve      :     16.91s CPU     19.95s WALL (     906 calls)
     ch_psi       :     16.37s CPU     19.31s WALL (   19077 calls)
 
     ch_psi       :     16.37s CPU     19.31s WALL (   19077 calls)
     h_psi        :     14.61s CPU     17.24s WALL (   19077 calls)
     last         :      1.61s CPU      1.90s WALL (   19077 calls)
 
     h_psi        :     14.61s CPU     17.24s WALL (   19077 calls)
     add_vuspsi   :      0.53s CPU      0.62s WALL (   19077 calls)
 
     incdrhoscf   :      1.06s CPU      1.26s WALL (     888 calls)
 
 
      General routines
     calbec       :      1.96s CPU      2.32s WALL (   38664 calls)
     fft          :      0.19s CPU      0.23s WALL (    3344 calls)
     ffts         :      0.02s CPU      0.02s WALL (     450 calls)
     fftw         :     13.69s CPU     16.18s WALL (  651062 calls)
     davcio       :      0.12s CPU      0.79s WALL (    4558 calls)
     write_rec    :      0.03s CPU      0.36s WALL (     110 calls)
 
 
     PHONON       :     21.34s CPU     25.96s WALL

 
   This run was terminated on:  17:26: 7   3Aug2022            

=------------------------------------------------------------------------------=
   JOB DONE.
=------------------------------------------------------------------------------=
