<UPF version="2.0.1">
  <PP_INFO>

 In_ONCV_PBE-1.0.upf

 This pseudopotential file has been produced using the code
 ONCVPSP  (Optimized Norm-Conservinng Vanderbilt PSeudopotential)
 scalar-relativistic version 2.1.1, 03/26/2014 by D. R. Hamann
 The code is available through a link at URL www.mat-simresearch.com.
 Documentation with the package provides a full discription of the
 input data below.


 While it is not required under the terms of the GNU GPL, it is
 suggested that you cite D. R. Hamann, Phys. Rev. B 88, 085117 (2013)
 in any publication using these pseudopotentials.


 Copyright 2015 The Regents of the University of California
 
 This work is licensed under the Creative Commons Attribution-ShareAlike 
 4.0 International License. To view a copy of this license, visit 
 http://creativecommons.org/licenses/by-sa/4.0/ or send a letter to 
 Creative Commons, PO Box 1866, Mountain View, CA 94042, USA.
 
 This pseudopotential is part of the Schlipf-Gygi norm-conserving 
 pseudopotential library. Its construction parameters were tuned to 
 reproduce materials of a training set with very high accuracy and 
 should be suitable as a general purpose pseudopotential to treat a 
 variety of different compounds. For details of the construction and 
 testing of the pseudopotential please refer to:
 
 [insert reference to paper here]
 
 We kindly ask that you include this reference in all publications 
 associated to this pseudopotential.


    <PP_INPUTFILE>
# ATOM AND REFERENCE CONFIGURATION
# atsym  z    nc    nv    iexc   psfile
  In 49.00     8     3     4      upf
#
#   n    l    f        energy (Ha)
    1    0    2.00
    2    0    2.00
    2    1    6.00
    3    0    2.00
    3    1    6.00
    3    2   10.00
    4    0    2.00
    4    1    6.00
    4    2   10.00
    5    0    2.00
    5    1    1.00
#
# PSEUDOPOTENTIAL AND OPTIMIZATION
# lmax
    2
#
#   l,   rc,     ep,   ncon, nbas, qcut
    0   3.16313  -0.30176    5    8   3.99918
    1   3.20109  -0.09256    5    8   3.99615
    2   2.61354  -0.68439    5    8   6.87642
#
# LOCAL POTENTIAL
# lloc, lpopt,  rc(5),   dvloc0
    4    5   1.66100      0.00000
#
# VANDERBILT-KLEINMAN-BYLANDER PROJECTORs
# l, nproj, debl
    0    2   0.99387
    1    2   1.08723
    2    2   1.72711
#
# MODEL CORE CHARGE
# icmod, fcfact
    0   0.00000
#
# LOG DERIVATIVE ANALYSIS
# epsh1, epsh2, depsh
   -5.00    3.00    0.02
#
# OUTPUT GRID
# rlmax, drl
    6.00    0.01
#
# TEST CONFIGURATIONS
# ncnf
    0
# nvcnf
#   n    l    f
    </PP_INPUTFILE>
  </PP_INFO>
  <!--                               -->
  <!-- END OF HUMAN READABLE SECTION -->
  <!--                               -->
    <PP_HEADER
       generated="Generated using ONCVPSP code by D. R. Hamann"
       author="Martin Schlipf and Francois Gygi"
       date="150105"
       comment=""
       element="In"
       pseudo_type="NC"
       relativistic="scalar"
       is_ultrasoft="F"
       is_paw="F"
       is_coulomb="F"
       has_so="F"
       has_wfc="F"
       has_gipaw="F"
       core_correction="F"
       functional="PBE"
       z_valence="   13.00"
       total_psenergy="  -5.34939808843E+01"
       rho_cutoff="   6.01000000000E+00"
       l_max="2"
       l_local="-1"
       mesh_size="   602"
       number_of_wfc="0"
       number_of_proj="6"/>
 <PP_MESH>
   <PP_R type="real"  size=" 602" columns="8">
    0.0000    0.0100    0.0200    0.0300    0.0400    0.0500    0.0600    0.0700
    0.0800    0.0900    0.1000    0.1100    0.1200    0.1300    0.1400    0.1500
    0.1600    0.1700    0.1800    0.1900    0.2000    0.2100    0.2200    0.2300
    0.2400    0.2500    0.2600    0.2700    0.2800    0.2900    0.3000    0.3100
    0.3200    0.3300    0.3400    0.3500    0.3600    0.3700    0.3800    0.3900
    0.4000    0.4100    0.4200    0.4300    0.4400    0.4500    0.4600    0.4700
    0.4800    0.4900    0.5000    0.5100    0.5200    0.5300    0.5400    0.5500
    0.5600    0.5700    0.5800    0.5900    0.6000    0.6100    0.6200    0.6300
    0.6400    0.6500    0.6600    0.6700    0.6800    0.6900    0.7000    0.7100
    0.7200    0.7300    0.7400    0.7500    0.7600    0.7700    0.7800    0.7900
    0.8000    0.8100    0.8200    0.8300    0.8400    0.8500    0.8600    0.8700
    0.8800    0.8900    0.9000    0.9100    0.9200    0.9300    0.9400    0.9500
    0.9600    0.9700    0.9800    0.9900    1.0000    1.0100    1.0200    1.0300
    1.0400    1.0500    1.0600    1.0700    1.0800    1.0900    1.1000    1.1100
    1.1200    1.1300    1.1400    1.1500    1.1600    1.1700    1.1800    1.1900
    1.2000    1.2100    1.2200    1.2300    1.2400    1.2500    1.2600    1.2700
    1.2800    1.2900    1.3000    1.3100    1.3200    1.3300    1.3400    1.3500
    1.3600    1.3700    1.3800    1.3900    1.4000    1.4100    1.4200    1.4300
    1.4400    1.4500    1.4600    1.4700    1.4800    1.4900    1.5000    1.5100
    1.5200    1.5300    1.5400    1.5500    1.5600    1.5700    1.5800    1.5900
    1.6000    1.6100    1.6200    1.6300    1.6400    1.6500    1.6600    1.6700
    1.6800    1.6900    1.7000    1.7100    1.7200    1.7300    1.7400    1.7500
    1.7600    1.7700    1.7800    1.7900    1.8000    1.8100    1.8200    1.8300
    1.8400    1.8500    1.8600    1.8700    1.8800    1.8900    1.9000    1.9100
    1.9200    1.9300    1.9400    1.9500    1.9600    1.9700    1.9800    1.9900
    2.0000    2.0100    2.0200    2.0300    2.0400    2.0500    2.0600    2.0700
    2.0800    2.0900    2.1000    2.1100    2.1200    2.1300    2.1400    2.1500
    2.1600    2.1700    2.1800    2.1900    2.2000    2.2100    2.2200    2.2300
    2.2400    2.2500    2.2600    2.2700    2.2800    2.2900    2.3000    2.3100
    2.3200    2.3300    2.3400    2.3500    2.3600    2.3700    2.3800    2.3900
    2.4000    2.4100    2.4200    2.4300    2.4400    2.4500    2.4600    2.4700
    2.4800    2.4900    2.5000    2.5100    2.5200    2.5300    2.5400    2.5500
    2.5600    2.5700    2.5800    2.5900    2.6000    2.6100    2.6200    2.6300
    2.6400    2.6500    2.6600    2.6700    2.6800    2.6900    2.7000    2.7100
    2.7200    2.7300    2.7400    2.7500    2.7600    2.7700    2.7800    2.7900
    2.8000    2.8100    2.8200    2.8300    2.8400    2.8500    2.8600    2.8700
    2.8800    2.8900    2.9000    2.9100    2.9200    2.9300    2.9400    2.9500
    2.9600    2.9700    2.9800    2.9900    3.0000    3.0100    3.0200    3.0300
    3.0400    3.0500    3.0600    3.0700    3.0800    3.0900    3.1000    3.1100
    3.1200    3.1300    3.1400    3.1500    3.1600    3.1700    3.1800    3.1900
    3.2000    3.2100    3.2200    3.2300    3.2400    3.2500    3.2600    3.2700
    3.2800    3.2900    3.3000    3.3100    3.3200    3.3300    3.3400    3.3500
    3.3600    3.3700    3.3800    3.3900    3.4000    3.4100    3.4200    3.4300
    3.4400    3.4500    3.4600    3.4700    3.4800    3.4900    3.5000    3.5100
    3.5200    3.5300    3.5400    3.5500    3.5600    3.5700    3.5800    3.5900
    3.6000    3.6100    3.6200    3.6300    3.6400    3.6500    3.6600    3.6700
    3.6800    3.6900    3.7000    3.7100    3.7200    3.7300    3.7400    3.7500
    3.7600    3.7700    3.7800    3.7900    3.8000    3.8100    3.8200    3.8300
    3.8400    3.8500    3.8600    3.8700    3.8800    3.8900    3.9000    3.9100
    3.9200    3.9300    3.9400    3.9500    3.9600    3.9700    3.9800    3.9900
    4.0000    4.0100    4.0200    4.0300    4.0400    4.0500    4.0600    4.0700
    4.0800    4.0900    4.1000    4.1100    4.1200    4.1300    4.1400    4.1500
    4.1600    4.1700    4.1800    4.1900    4.2000    4.2100    4.2200    4.2300
    4.2400    4.2500    4.2600    4.2700    4.2800    4.2900    4.3000    4.3100
    4.3200    4.3300    4.3400    4.3500    4.3600    4.3700    4.3800    4.3900
    4.4000    4.4100    4.4200    4.4300    4.4400    4.4500    4.4600    4.4700
    4.4800    4.4900    4.5000    4.5100    4.5200    4.5300    4.5400    4.5500
    4.5600    4.5700    4.5800    4.5900    4.6000    4.6100    4.6200    4.6300
    4.6400    4.6500    4.6600    4.6700    4.6800    4.6900    4.7000    4.7100
    4.7200    4.7300    4.7400    4.7500    4.7600    4.7700    4.7800    4.7900
    4.8000    4.8100    4.8200    4.8300    4.8400    4.8500    4.8600    4.8700
    4.8800    4.8900    4.9000    4.9100    4.9200    4.9300    4.9400    4.9500
    4.9600    4.9700    4.9800    4.9900    5.0000    5.0100    5.0200    5.0300
    5.0400    5.0500    5.0600    5.0700    5.0800    5.0900    5.1000    5.1100
    5.1200    5.1300    5.1400    5.1500    5.1600    5.1700    5.1800    5.1900
    5.2000    5.2100    5.2200    5.2300    5.2400    5.2500    5.2600    5.2700
    5.2800    5.2900    5.3000    5.3100    5.3200    5.3300    5.3400    5.3500
    5.3600    5.3700    5.3800    5.3900    5.4000    5.4100    5.4200    5.4300
    5.4400    5.4500    5.4600    5.4700    5.4800    5.4900    5.5000    5.5100
    5.5200    5.5300    5.5400    5.5500    5.5600    5.5700    5.5800    5.5900
    5.6000    5.6100    5.6200    5.6300    5.6400    5.6500    5.6600    5.6700
    5.6800    5.6900    5.7000    5.7100    5.7200    5.7300    5.7400    5.7500
    5.7600    5.7700    5.7800    5.7900    5.8000    5.8100    5.8200    5.8300
    5.8400    5.8500    5.8600    5.8700    5.8800    5.8900    5.9000    5.9100
    5.9200    5.9300    5.9400    5.9500    5.9600    5.9700    5.9800    5.9900
    6.0000    6.0100
   </PP_R>
   <PP_RAB type="real"  size=" 602" columns="8">
    0.0100    0.0100    0.0100    0.0100    0.0100    0.0100    0.0100    0.0100
    0.0100    0.0100    0.0100    0.0100    0.0100    0.0100    0.0100    0.0100
    0.0100    0.0100    0.0100    0.0100    0.0100    0.0100    0.0100    0.0100
    0.0100    0.0100    0.0100    0.0100    0.0100    0.0100    0.0100    0.0100
    0.0100    0.0100    0.0100    0.0100    0.0100    0.0100    0.0100    0.0100
    0.0100    0.0100    0.0100    0.0100    0.0100    0.0100    0.0100    0.0100
    0.0100    0.0100    0.0100    0.0100    0.0100    0.0100    0.0100    0.0100
    0.0100    0.0100    0.0100    0.0100    0.0100    0.0100    0.0100    0.0100
    0.0100    0.0100    0.0100    0.0100    0.0100    0.0100    0.0100    0.0100
    0.0100    0.0100    0.0100    0.0100    0.0100    0.0100    0.0100    0.0100
    0.0100    0.0100    0.0100    0.0100    0.0100    0.0100    0.0100    0.0100
    0.0100    0.0100    0.0100    0.0100    0.0100    0.0100    0.0100    0.0100
    0.0100    0.0100    0.0100    0.0100    0.0100    0.0100    0.0100    0.0100
    0.0100    0.0100    0.0100    0.0100    0.0100    0.0100    0.0100    0.0100
    0.0100    0.0100    0.0100    0.0100    0.0100    0.0100    0.0100    0.0100
    0.0100    0.0100    0.0100    0.0100    0.0100    0.0100    0.0100    0.0100
    0.0100    0.0100    0.0100    0.0100    0.0100    0.0100    0.0100    0.0100
    0.0100    0.0100    0.0100    0.0100    0.0100    0.0100    0.0100    0.0100
    0.0100    0.0100    0.0100    0.0100    0.0100    0.0100    0.0100    0.0100
    0.0100    0.0100    0.0100    0.0100    0.0100    0.0100    0.0100    0.0100
    0.0100    0.0100    0.0100    0.0100    0.0100    0.0100    0.0100    0.0100
    0.0100    0.0100    0.0100    0.0100    0.0100    0.0100    0.0100    0.0100
    0.0100    0.0100    0.0100    0.0100    0.0100    0.0100    0.0100    0.0100
    0.0100    0.0100    0.0100    0.0100    0.0100    0.0100    0.0100    0.0100
    0.0100    0.0100    0.0100    0.0100    0.0100    0.0100    0.0100    0.0100
    0.0100    0.0100    0.0100    0.0100    0.0100    0.0100    0.0100    0.0100
    0.0100    0.0100    0.0100    0.0100    0.0100    0.0100    0.0100    0.0100
    0.0100    0.0100    0.0100    0.0100    0.0100    0.0100    0.0100    0.0100
    0.0100    0.0100    0.0100    0.0100    0.0100    0.0100    0.0100    0.0100
    0.0100    0.0100    0.0100    0.0100    0.0100    0.0100    0.0100    0.0100
    0.0100    0.0100    0.0100    0.0100    0.0100    0.0100    0.0100    0.0100
    0.0100    0.0100    0.0100    0.0100    0.0100    0.0100    0.0100    0.0100
    0.0100    0.0100    0.0100    0.0100    0.0100    0.0100    0.0100    0.0100
    0.0100    0.0100    0.0100    0.0100    0.0100    0.0100    0.0100    0.0100
    0.0100    0.0100    0.0100    0.0100    0.0100    0.0100    0.0100    0.0100
    0.0100    0.0100    0.0100    0.0100    0.0100    0.0100    0.0100    0.0100
    0.0100    0.0100    0.0100    0.0100    0.0100    0.0100    0.0100    0.0100
    0.0100    0.0100    0.0100    0.0100    0.0100    0.0100    0.0100    0.0100
    0.0100    0.0100    0.0100    0.0100    0.0100    0.0100    0.0100    0.0100
    0.0100    0.0100    0.0100    0.0100    0.0100    0.0100    0.0100    0.0100
    0.0100    0.0100    0.0100    0.0100    0.0100    0.0100    0.0100    0.0100
    0.0100    0.0100    0.0100    0.0100    0.0100    0.0100    0.0100    0.0100
    0.0100    0.0100    0.0100    0.0100    0.0100    0.0100    0.0100    0.0100
    0.0100    0.0100    0.0100    0.0100    0.0100    0.0100    0.0100    0.0100
    0.0100    0.0100    0.0100    0.0100    0.0100    0.0100    0.0100    0.0100
    0.0100    0.0100    0.0100    0.0100    0.0100    0.0100    0.0100    0.0100
    0.0100    0.0100    0.0100    0.0100    0.0100    0.0100    0.0100    0.0100
    0.0100    0.0100    0.0100    0.0100    0.0100    0.0100    0.0100    0.0100
    0.0100    0.0100    0.0100    0.0100    0.0100    0.0100    0.0100    0.0100
    0.0100    0.0100    0.0100    0.0100    0.0100    0.0100    0.0100    0.0100
    0.0100    0.0100    0.0100    0.0100    0.0100    0.0100    0.0100    0.0100
    0.0100    0.0100    0.0100    0.0100    0.0100    0.0100    0.0100    0.0100
    0.0100    0.0100    0.0100    0.0100    0.0100    0.0100    0.0100    0.0100
    0.0100    0.0100    0.0100    0.0100    0.0100    0.0100    0.0100    0.0100
    0.0100    0.0100    0.0100    0.0100    0.0100    0.0100    0.0100    0.0100
    0.0100    0.0100    0.0100    0.0100    0.0100    0.0100    0.0100    0.0100
    0.0100    0.0100    0.0100    0.0100    0.0100    0.0100    0.0100    0.0100
    0.0100    0.0100    0.0100    0.0100    0.0100    0.0100    0.0100    0.0100
    0.0100    0.0100    0.0100    0.0100    0.0100    0.0100    0.0100    0.0100
    0.0100    0.0100    0.0100    0.0100    0.0100    0.0100    0.0100    0.0100
    0.0100    0.0100    0.0100    0.0100    0.0100    0.0100    0.0100    0.0100
    0.0100    0.0100    0.0100    0.0100    0.0100    0.0100    0.0100    0.0100
    0.0100    0.0100    0.0100    0.0100    0.0100    0.0100    0.0100    0.0100
    0.0100    0.0100    0.0100    0.0100    0.0100    0.0100    0.0100    0.0100
    0.0100    0.0100    0.0100    0.0100    0.0100    0.0100    0.0100    0.0100
    0.0100    0.0100    0.0100    0.0100    0.0100    0.0100    0.0100    0.0100
    0.0100    0.0100    0.0100    0.0100    0.0100    0.0100    0.0100    0.0100
    0.0100    0.0100    0.0100    0.0100    0.0100    0.0100    0.0100    0.0100
    0.0100    0.0100    0.0100    0.0100    0.0100    0.0100    0.0100    0.0100
    0.0100    0.0100    0.0100    0.0100    0.0100    0.0100    0.0100    0.0100
    0.0100    0.0100    0.0100    0.0100    0.0100    0.0100    0.0100    0.0100
    0.0100    0.0100    0.0100    0.0100    0.0100    0.0100    0.0100    0.0100
    0.0100    0.0100    0.0100    0.0100    0.0100    0.0100    0.0100    0.0100
    0.0100    0.0100    0.0100    0.0100    0.0100    0.0100    0.0100    0.0100
    0.0100    0.0100    0.0100    0.0100    0.0100    0.0100    0.0100    0.0100
    0.0100    0.0100
   </PP_RAB>
 </PP_MESH>
  <PP_LOCAL type="real"  size=" 602" columns="4">
   -3.3395702905E+01   -3.4569066367E+01   -3.4959674126E+01   -3.4952538824E+01
   -3.4932673102E+01   -3.4902974381E+01   -3.4864725221E+01   -3.4819636552E+01
   -3.4769082989E+01   -3.4714009075E+01   -3.4655061687E+01   -3.4592715913E+01
   -3.4527357754E+01   -3.4459334721E+01   -3.4388987276E+01   -3.4316669278E+01
   -3.4242761809E+01   -3.4167682512E+01   -3.4091891325E+01   -3.4015892733E+01
   -3.3940234224E+01   -3.3865500434E+01   -3.3792302310E+01   -3.3721260715E+01
   -3.3652984067E+01   -3.3588040001E+01   -3.3526921514E+01   -3.3470008858E+01
   -3.3417529260E+01   -3.3369517213E+01   -3.3325779051E+01   -3.3285865921E+01
   -3.3249059446E+01   -3.3214373846E+01   -3.3180576030E+01   -3.3146227781E+01
   -3.3109744257E+01   -3.3069470416E+01   -3.3023766271E+01   -3.2971096748E+01
   -3.2910116838E+01   -3.2839745810E+01   -3.2759223876E+01   -3.2668146732E+01
   -3.2566475582E+01   -3.2454522591E+01   -3.2332913952E+01   -3.2202534729E+01
   -3.2064461144E+01   -3.1919887531E+01   -3.1770053029E+01   -3.1616174796E+01
   -3.1459395355E+01   -3.1300738750E+01   -3.1141089336E+01   -3.0981179622E+01
   -3.0821591535E+01   -3.0662769818E+01   -3.0505035701E+01   -3.0348609407E+01
   -3.0193628418E+01   -3.0040166283E+01   -2.9888250175E+01   -2.9737871935E+01
   -2.9589000431E+01   -2.9441588436E+01   -2.9295577522E+01   -2.9150901806E+01
   -2.9007489388E+01   -2.8865262616E+01   -2.8724137557E+01   -2.8584022939E+01
   -2.8444818619E+01   -2.8306414086E+01   -2.8168686786E+01   -2.8031500971E+01
   -2.7894707318E+01   -2.7758142968E+01   -2.7621632510E+01   -2.7484989907E+01
   -2.7348021409E+01   -2.7210529396E+01   -2.7072317032E+01   -2.6933193516E+01
   -2.6792979664E+01   -2.6651513476E+01   -2.6508655346E+01   -2.6364292566E+01
   -2.6218342820E+01   -2.6070756451E+01   -2.5921517357E+01   -2.5770642518E+01
   -2.5618180208E+01   -2.5464207107E+01   -2.5308824531E+01   -2.5152154084E+01
   -2.4994333025E+01   -2.4835509562E+01   -2.4675838842E+01   -2.4515478255E+01
   -2.4354584072E+01   -2.4193308653E+01   -2.4031798211E+01   -2.3870191400E+01
   -2.3708618050E+01   -2.3547197598E+01   -2.3386040185E+01   -2.3225246428E+01
   -2.3064908114E+01   -2.2905108124E+01   -2.2745920612E+01   -2.2587413057E+01
   -2.2429646580E+01   -2.2272676768E+01   -2.2116552968E+01   -2.1961320754E+01
   -2.1807022015E+01   -2.1653695084E+01   -2.1501374864E+01   -2.1350094089E+01
   -2.1199883543E+01   -2.1050771287E+01   -2.0902783853E+01   -2.0755946421E+01
   -2.0610282317E+01   -2.0465813330E+01   -2.0322560252E+01   -2.0180542339E+01
   -2.0039777275E+01   -1.9900281919E+01   -1.9762071524E+01   -1.9625159785E+01
   -1.9489559705E+01   -1.9355282274E+01   -1.9222337152E+01   -1.9090733422E+01
   -1.8960477477E+01   -1.8831575188E+01   -1.8704030953E+01   -1.8577847092E+01
   -1.8453025668E+01   -1.8329566212E+01   -1.8207467590E+01   -1.8086727471E+01
   -1.7967341525E+01   -1.7849305481E+01   -1.7732612544E+01   -1.7617255927E+01
   -1.7503227330E+01   -1.7390517545E+01   -1.7279116937E+01   -1.7169014295E+01
   -1.7060198741E+01   -1.6952657579E+01   -1.6846378486E+01   -1.6741347851E+01
   -1.6637551983E+01   -1.6534976425E+01   -1.6433606233E+01   -1.6333426108E+01
   -1.6234419827E+01   -1.6136571180E+01   -1.6039862493E+01   -1.5944276494E+01
   -1.5849793755E+01   -1.5756395610E+01   -1.5664060724E+01   -1.5572767933E+01
   -1.5482496502E+01   -1.5393224706E+01   -1.5304934341E+01   -1.5217605874E+01
   -1.5131222629E+01   -1.5045766972E+01   -1.4961223168E+01   -1.4877574980E+01
   -1.4794807208E+01   -1.4712904519E+01   -1.4631851978E+01   -1.4551634710E+01
   -1.4472237897E+01   -1.4393646794E+01   -1.4315846634E+01   -1.4238822664E+01
   -1.4162560131E+01   -1.4087044382E+01   -1.4012260611E+01   -1.3938194577E+01
   -1.3864831521E+01   -1.3792157808E+01   -1.3720159217E+01   -1.3648822648E+01
   -1.3578135150E+01   -1.3508083972E+01   -1.3438658231E+01   -1.3369845327E+01
   -1.3301636567E+01   -1.3234020980E+01   -1.3166990623E+01   -1.3100537359E+01
   -1.3034653400E+01   -1.2969333702E+01   -1.2904570780E+01   -1.2840361561E+01
   -1.2776700985E+01   -1.2713585674E+01   -1.2651013245E+01   -1.2588980253E+01
   -1.2527485713E+01   -1.2466527443E+01   -1.2406104192E+01   -1.2346214956E+01
   -1.2286858462E+01   -1.2228033796E+01   -1.2169740070E+01   -1.2111976044E+01
   -1.2054740378E+01   -1.1998032223E+01   -1.1941849261E+01   -1.1886190047E+01
   -1.1831052464E+01   -1.1776433496E+01   -1.1722331314E+01   -1.1668742035E+01
   -1.1615662265E+01   -1.1563088977E+01   -1.1511017133E+01   -1.1459442911E+01
   -1.1408361626E+01   -1.1357767733E+01   -1.1307656753E+01   -1.1258022662E+01
   -1.1208859549E+01   -1.1160162182E+01   -1.1111923742E+01   -1.1064138074E+01
   -1.1016799026E+01   -1.0969899695E+01   -1.0923433568E+01   -1.0877394002E+01
   -1.0831774134E+01   -1.0786567192E+01   -1.0741766441E+01   -1.0697365164E+01
   -1.0653356461E+01   -1.0609733822E+01   -1.0566490779E+01   -1.0523620449E+01
   -1.0481116772E+01   -1.0438973628E+01   -1.0397184308E+01   -1.0355743323E+01
   -1.0314645000E+01   -1.0273882953E+01   -1.0233452297E+01   -1.0193347898E+01
   -1.0153563826E+01   -1.0114095764E+01   -1.0074939187E+01   -1.0036088750E+01
   -9.9975406005E+00   -9.9592908580E+00   -9.9213348990E+00   -9.8836691559E+00
   -9.8462903111E+00   -9.8091945496E+00   -9.7723784021E+00   -9.7358387203E+00
   -9.6995720615E+00   -9.6635750450E+00   -9.6278446620E+00   -9.5923776828E+00
   -9.5571706989E+00   -9.5222210211E+00   -9.4875256700E+00   -9.4530814007E+00
   -9.4188856158E+00   -9.3849355598E+00   -9.3512282556E+00   -9.3177610570E+00
   -9.2845314733E+00   -9.2515368050E+00   -9.2187743315E+00   -9.1862418127E+00
   -9.1539367912E+00   -9.1218565690E+00   -9.0899990295E+00   -9.0583619004E+00
   -9.0269427498E+00   -8.9957393251E+00   -8.9647495973E+00   -8.9339713928E+00
   -8.9034023317E+00   -8.8730405910E+00   -8.8428841267E+00   -8.8129307792E+00
   -8.7831785755E+00   -8.7536256796E+00   -8.7242701549E+00   -8.6951098871E+00
   -8.6661432080E+00   -8.6373682726E+00   -8.6087831668E+00   -8.5803860541E+00
   -8.5521752578E+00   -8.5241490090E+00   -8.4963054334E+00   -8.4686428908E+00
   -8.4411597013E+00   -8.4138541422E+00   -8.3867244373E+00   -8.3597690238E+00
   -8.3329862462E+00   -8.3063743973E+00   -8.2799318296E+00   -8.2536570039E+00
   -8.2275483159E+00   -8.2016040408E+00   -8.1758226898E+00   -8.1502027911E+00
   -8.1247428167E+00   -8.0994410621E+00   -8.0742962282E+00   -8.0493068956E+00
   -8.0244716142E+00   -7.9997888076E+00   -7.9752572434E+00   -7.9508755446E+00
   -7.9266423072E+00   -7.9025560573E+00   -7.8786156175E+00   -7.8548196765E+00
   -7.8311668874E+00   -7.8076558707E+00   -7.7842854928E+00   -7.7610545028E+00
   -7.7379616117E+00   -7.7150055078E+00   -7.6921851114E+00   -7.6694992300E+00
   -7.6469466381E+00   -7.6245260736E+00   -7.6022365131E+00   -7.5800768191E+00
   -7.5580458338E+00   -7.5361423261E+00   -7.5143653325E+00   -7.4927137686E+00
   -7.4711865478E+00   -7.4497824536E+00   -7.4285005857E+00   -7.4073399096E+00
   -7.3862993913E+00   -7.3653778826E+00   -7.3445744797E+00   -7.3238882189E+00
   -7.3033181138E+00   -7.2828630954E+00   -7.2625222344E+00   -7.2422946430E+00
   -7.2221793803E+00   -7.2021754609E+00   -7.1822819159E+00   -7.1624979351E+00
   -7.1428226215E+00   -7.1232550767E+00   -7.1037942813E+00   -7.0844395029E+00
   -7.0651898857E+00   -7.0460445744E+00   -7.0270026341E+00   -7.0080632654E+00
   -6.9892256996E+00   -6.9704891207E+00   -6.9518526884E+00   -6.9333155206E+00
   -6.9148769364E+00   -6.8965361577E+00   -6.8782924065E+00   -6.8601448195E+00
   -6.8420926933E+00   -6.8241353212E+00   -6.8062719609E+00   -6.7885018501E+00
   -6.7708241766E+00   -6.7532383284E+00   -6.7357435980E+00   -6.7183392774E+00
   -6.7010245928E+00   -6.6837988721E+00   -6.6666614895E+00   -6.6496117702E+00
   -6.6326490391E+00   -6.6157725197E+00   -6.5989816590E+00   -6.5822758219E+00
   -6.5656543647E+00   -6.5491166192E+00   -6.5326618884E+00   -6.5162896429E+00
   -6.4999992689E+00   -6.4837901527E+00   -6.4676616309E+00   -6.4516130942E+00
   -6.4356440154E+00   -6.4197538091E+00   -6.4039418903E+00   -6.3882076063E+00
   -6.3725504185E+00   -6.3569698066E+00   -6.3414652125E+00   -6.3260360782E+00
   -6.3106817678E+00   -6.2954017962E+00   -6.2801956556E+00   -6.2650628139E+00
   -6.2500027388E+00   -6.2350148161E+00   -6.2200985989E+00   -6.2052535968E+00
   -6.1904793025E+00   -6.1757752085E+00   -6.1611407265E+00   -6.1465754333E+00
   -6.1320788611E+00   -6.1176505262E+00   -6.1032899446E+00   -6.0889965583E+00
   -6.0747699541E+00   -6.0606096915E+00   -6.0465153091E+00   -6.0324863457E+00
   -6.0185222777E+00   -6.0046226886E+00   -5.9907871700E+00   -5.9770152819E+00
   -5.9633065844E+00   -5.9496605924E+00   -5.9360768746E+00   -5.9225550579E+00
   -5.9090947230E+00   -5.8956954504E+00   -5.8823567978E+00   -5.8690783074E+00
   -5.8558596452E+00   -5.8427004113E+00   -5.8296002058E+00   -5.8165586288E+00
   -5.8035751987E+00   -5.7906496106E+00   -5.7777814874E+00   -5.7649704476E+00
   -5.7522161100E+00   -5.7395180431E+00   -5.7268758908E+00   -5.7142893247E+00
   -5.7017579812E+00   -5.6892814968E+00   -5.6768594945E+00   -5.6644915577E+00
   -5.6521774087E+00   -5.6399167008E+00   -5.6277090874E+00   -5.6155542220E+00
   -5.6034517038E+00   -5.5914012233E+00   -5.5794024775E+00   -5.5674551358E+00
   -5.5555588678E+00   -5.5437133344E+00   -5.5319181452E+00   -5.5201730550E+00
   -5.5084777486E+00   -5.4968319109E+00   -5.4852352268E+00   -5.4736873439E+00
   -5.4621879508E+00   -5.4507367875E+00   -5.4393335536E+00   -5.4279779485E+00
   -5.4166696720E+00   -5.4054083645E+00   -5.3941937790E+00   -5.3830256454E+00
   -5.3719036774E+00   -5.3608275884E+00   -5.3497970904E+00   -5.3388118279E+00
   -5.3278715985E+00   -5.3169761292E+00   -5.3061251470E+00   -5.2953183787E+00
   -5.2845555372E+00   -5.2738363079E+00   -5.2631604882E+00   -5.2525278176E+00
   -5.2419380359E+00   -5.2313908826E+00   -5.2208860768E+00   -5.2104233322E+00
   -5.2000024504E+00   -5.1896231830E+00   -5.1792852820E+00   -5.1689884990E+00
   -5.1587325638E+00   -5.1485172067E+00   -5.1383422380E+00   -5.1282074209E+00
   -5.1181125188E+00   -5.1080572951E+00   -5.0980414944E+00   -5.0880648529E+00
   -5.0781271935E+00   -5.0682282905E+00   -5.0583679183E+00   -5.0485458513E+00
   -5.0387618535E+00   -5.0290156561E+00   -5.0193070989E+00   -5.0096359667E+00
   -5.0000020444E+00   -4.9904051168E+00   -4.9808449689E+00   -4.9713213243E+00
   -4.9618340364E+00   -4.9523829021E+00   -4.9429677165E+00   -4.9335882744E+00
   -4.9242443707E+00   -4.9149357564E+00   -4.9056622579E+00   -4.8964236986E+00
   -4.8872198828E+00   -4.8780506151E+00   -4.8689156998E+00   -4.8598149191E+00
   -4.8507480640E+00   -4.8417149868E+00   -4.8327155013E+00   -4.8237494208E+00
   -4.8148165591E+00   -4.8059167296E+00   -4.7970496900E+00   -4.7882153146E+00
   -4.7794134288E+00   -4.7706438549E+00   -4.7619064152E+00   -4.7532009318E+00
   -4.7445272005E+00   -4.7358850417E+00   -4.7272743179E+00   -4.7186948596E+00
   -4.7101464973E+00   -4.7016290616E+00   -4.6931423829E+00   -4.6846862420E+00
   -4.6762605193E+00   -4.6678650599E+00   -4.6594997024E+00   -4.6511642850E+00
   -4.6428586463E+00   -4.6345826116E+00   -4.6263359915E+00   -4.6181186745E+00
   -4.6099305064E+00   -4.6017713333E+00   -4.5936410011E+00   -4.5855393557E+00
   -4.5774662156E+00   -4.5694214307E+00   -4.5614048812E+00   -4.5534164201E+00
   -4.5454559006E+00   -4.5375231758E+00   -4.5296180989E+00   -4.5217404862E+00
   -4.5138902158E+00   -4.5060671642E+00   -4.4982711912E+00   -4.4905021569E+00
   -4.4827599211E+00   -4.4750443440E+00   -4.4673552439E+00   -4.4596925172E+00
   -4.4520560406E+00   -4.4444456807E+00   -4.4368613038E+00   -4.4293027766E+00
   -4.4217699654E+00   -4.4142626952E+00   -4.4067808703E+00   -4.3993243722E+00
   -4.3918930737E+00   -4.3844868475E+00   -4.3771055662E+00   -4.3697491027E+00
   -4.3624172916E+00   -4.3551100367E+00   -4.3478272279E+00   -4.3405687441E+00
   -4.3333344638E+00   -4.3261242656E+00
  </PP_LOCAL>
 <PP_NONLOCAL>
   <PP_BETA.1
       type="real"
       size=" 602"
       columns="4"
       index="1"
       angular_momentum="0"
       cutoff_radius_index=" 324"
       cutoff_radius="    3.2300000000E+00" >
    0.0000000000E+00   -9.9574192688E-03   -1.9931845796E-02   -2.9940230856E-02
   -3.9999413888E-02   -5.0126066922E-02   -6.0336639402E-02   -7.0647303562E-02
   -8.1073900461E-02   -9.1631886834E-02   -1.0233628288E-01   -1.1320162108E-01
   -1.2424189627E-01   -1.3547051697E-01   -1.4690025814E-01   -1.5854321554E-01
   -1.7041076167E-01   -1.8251350363E-01   -1.9486124267E-01   -2.0746293585E-01
   -2.2032665981E-01   -2.3345957656E-01   -2.4686790176E-01   -2.6055687511E-01
   -2.7453073341E-01   -2.8879268593E-01   -3.0334489246E-01   -3.1818844394E-01
   -3.3332334588E-01   -3.4874850445E-01   -3.6446171530E-01   -3.8045965534E-01
   -3.9673787736E-01   -4.1329080753E-01   -4.3011174553E-01   -4.4719286832E-01
   -4.6452523585E-01   -4.8209880066E-01   -4.9990241968E-01   -5.1792386934E-01
   -5.3614986338E-01   -5.5456607359E-01   -5.7315715331E-01   -5.9190676374E-01
   -6.1079760302E-01   -6.2981143790E-01   -6.4892913806E-01   -6.6813071304E-01
   -6.8739535115E-01   -7.0670146094E-01   -7.2602671725E-01   -7.4534810536E-01
   -7.6464196650E-01   -7.8388405672E-01   -8.0304958951E-01   -8.2211329415E-01
   -8.4104947353E-01   -8.5983205304E-01   -8.7843465090E-01   -8.9683062513E-01
   -9.1499314312E-01   -9.3289524437E-01   -9.5050988435E-01   -9.6781003306E-01
   -9.8476870534E-01   -1.0013590298E+00   -1.0175543401E+00   -1.0333282093E+00
   -1.0486545153E+00   -1.0635075219E+00   -1.0778619390E+00   -1.0916929730E+00
   -1.1049763945E+00   -1.1176885933E+00   -1.1298066514E+00   -1.1413084007E+00
   -1.1521724680E+00   -1.1623783361E+00   -1.1719063979E+00   -1.1807380079E+00
   -1.1888555325E+00   -1.1962423975E+00   -1.2028831334E+00   -1.2087634184E+00
   -1.2138701188E+00   -1.2181913266E+00   -1.2217163945E+00   -1.2244359677E+00
   -1.2263420133E+00   -1.2274278458E+00   -1.2276881501E+00   -1.2271190010E+00