<UPF version="2.0.1">
  <PP_INFO>

 P_ONCV_PBE-1.0.upf

 This pseudopotential file has been produced using the code
 ONCVPSP  (Optimized Norm-Conservinng Vanderbilt PSeudopotential)
 scalar-relativistic version 2.1.1, 03/26/2014 by D. R. Hamann
 The code is available through a link at URL www.mat-simresearch.com.
 Documentation with the package provides a full discription of the
 input data below.


 While it is not required under the terms of the GNU GPL, it is
 suggested that you cite D. R. Hamann, Phys. Rev. B 88, 085117 (2013)
 in any publication using these pseudopotentials.


 Copyright 2015 The Regents of the University of California
 
 This work is licensed under the Creative Commons Attribution-ShareAlike 
 4.0 International License. To view a copy of this license, visit 
 http://creativecommons.org/licenses/by-sa/4.0/ or send a letter to 
 Creative Commons, PO Box 1866, Mountain View, CA 94042, USA.
 
 This pseudopotential is part of the Schlipf-Gygi norm-conserving 
 pseudopotential library. Its construction parameters were tuned to 
 reproduce materials of a training set with very high accuracy and 
 should be suitable as a general purpose pseudopotential to treat a 
 variety of different compounds. For details of the construction and 
 testing of the pseudopotential please refer to:
 
 [insert reference to paper here]
 
 We kindly ask that you include this reference in all publications 
 associated to this pseudopotential.


    <PP_INPUTFILE>
# ATOM AND REFERENCE CONFIGURATION
# atsym  z    nc    nv    iexc   psfile
  P 15.00     3     2     4      upf
#
#   n    l    f        energy (Ha)
    1    0    2.00
    2    0    2.00
    2    1    6.00
    3    0    2.00
    3    1    3.00
#
# PSEUDOPOTENTIAL AND OPTIMIZATION
# lmax
    1
#
#   l,   rc,     ep,   ncon, nbas, qcut
    0   2.49885  -0.51336    5    8   6.79891
    1   1.83252  -0.20237    5    8   9.63124
#
# LOCAL POTENTIAL
# lloc, lpopt,  rc(5),   dvloc0
    4    5   1.09720      0.00000
#
# VANDERBILT-KLEINMAN-BYLANDER PROJECTORs
# l, nproj, debl
    0    2   1.26829
    1    2   2.62081
#
# MODEL CORE CHARGE
# icmod, fcfact
    0   0.00000
#
# LOG DERIVATIVE ANALYSIS
# epsh1, epsh2, depsh
   -5.00    3.00    0.02
#
# OUTPUT GRID
# rlmax, drl
    6.00    0.01
#
# TEST CONFIGURATIONS
# ncnf
    0
# nvcnf
#   n    l    f
    </PP_INPUTFILE>
  </PP_INFO>
  <!--                               -->
  <!-- END OF HUMAN READABLE SECTION -->
  <!--                               -->
    <PP_HEADER
       generated="Generated using ONCVPSP code by D. R. Hamann"
       author="Martin Schlipf and Francois Gygi"
       date="150105"
       comment=""
       element="P "
       pseudo_type="NC"
       relativistic="scalar"
       is_ultrasoft="F"
       is_paw="F"
       is_coulomb="F"
       has_so="F"
       has_wfc="F"
       has_gipaw="F"
       core_correction="F"
       functional="PBE"
       z_valence="    5.00"
       total_psenergy="  -6.39990125180E+00"
       rho_cutoff="   6.01000000000E+00"
       l_max="1"
       l_local="-1"
       mesh_size="   602"
       number_of_wfc="0"
       number_of_proj="4"/>
 <PP_MESH>
   <PP_R type="real"  size=" 602" columns="8">
    0.0000    0.0100    0.0200    0.0300    0.0400    0.0500    0.0600    0.0700
    0.0800    0.0900    0.1000    0.1100    0.1200    0.1300    0.1400    0.1500
    0.1600    0.1700    0.1800    0.1900    0.2000    0.2100    0.2200    0.2300
    0.2400    0.2500    0.2600    0.2700    0.2800    0.2900    0.3000    0.3100
    0.3200    0.3300    0.3400    0.3500    0.3600    0.3700    0.3800    0.3900
    0.4000    0.4100    0.4200    0.4300    0.4400    0.4500    0.4600    0.4700
    0.4800    0.4900    0.5000    0.5100    0.5200    0.5300    0.5400    0.5500
    0.5600    0.5700    0.5800    0.5900    0.6000    0.6100    0.6200    0.6300
    0.6400    0.6500    0.6600    0.6700    0.6800    0.6900    0.7000    0.7100
    0.7200    0.7300    0.7400    0.7500    0.7600    0.7700    0.7800    0.7900
    0.8000    0.8100    0.8200    0.8300    0.8400    0.8500    0.8600    0.8700
    0.8800    0.8900    0.9000    0.9100    0.9200    0.9300    0.9400    0.9500
    0.9600    0.9700    0.9800    0.9900    1.0000    1.0100    1.0200    1.0300
    1.0400    1.0500    1.0600    1.0700    1.0800    1.0900    1.1000    1.1100
    1.1200    1.1300    1.1400    1.1500    1.1600    1.1700    1.1800    1.1900
    1.2000    1.2100    1.2200    1.2300    1.2400    1.2500    1.2600    1.2700
    1.2800    1.2900    1.3000    1.3100    1.3200    1.3300    1.3400    1.3500
    1.3600    1.3700    1.3800    1.3900    1.4000    1.4100    1.4200    1.4300
    1.4400    1.4500    1.4600    1.4700    1.4800    1.4900    1.5000    1.5100
    1.5200    1.5300    1.5400    1.5500    1.5600    1.5700    1.5800    1.5900
    1.6000    1.6100    1.6200    1.6300    1.6400    1.6500    1.6600    1.6700
    1.6800    1.6900    1.7000    1.7100    1.7200    1.7300    1.7400    1.7500
    1.7600    1.7700    1.7800    1.7900    1.8000    1.8100    1.8200    1.8300
    1.8400    1.8500    1.8600    1.8700    1.8800    1.8900    1.9000    1.9100
    1.9200    1.9300    1.9400    1.9500    1.9600    1.9700    1.9800    1.9900
    2.0000    2.0100    2.0200    2.0300    2.0400    2.0500    2.0600    2.0700
    2.0800    2.0900    2.1000    2.1100    2.1200    2.1300    2.1400    2.1500
    2.1600    2.1700    2.1800    2.1900    2.2000    2.2100    2.2200    2.2300
    2.2400    2.2500    2.2600    2.2700    2.2800    2.2900    2.3000    2.3100
    2.3200    2.3300    2.3400    2.3500    2.3600    2.3700    2.3800    2.3900
    2.4000    2.4100    2.4200    2.4300    2.4400    2.4500    2.4600    2.4700
    2.4800    2.4900    2.5000    2.5100    2.5200    2.5300    2.5400    2.5500
    2.5600    2.5700    2.5800    2.5900    2.6000    2.6100    2.6200    2.6300
    2.6400    2.6500    2.6600    2.6700    2.6800    2.6900    2.7000    2.7100
    2.7200    2.7300    2.7400    2.7500    2.7600    2.7700    2.7800    2.7900
    2.8000    2.8100    2.8200    2.8300    2.8400    2.8500    2.8600    2.8700
    2.8800    2.8900    2.9000    2.9100    2.9200    2.9300    2.9400    2.9500
    2.9600    2.9700    2.9800    2.9900    3.0000    3.0100    3.0200    3.0300
    3.0400    3.0500    3.0600    3.0700    3.0800    3.0900    3.1000    3.1100
    3.1200    3.1300    3.1400    3.1500    3.1600    3.1700    3.1800    3.1900
    3.2000    3.2100    3.2200    3.2300    3.2400    3.2500    3.2600    3.2700
    3.2800    3.2900    3.3000    3.3100    3.3200    3.3300    3.3400    3.3500
    3.3600    3.3700    3.3800    3.3900    3.4000    3.4100    3.4200    3.4300
    3.4400    3.4500    3.4600    3.4700    3.4800    3.4900    3.5000    3.5100
    3.5200    3.5300    3.5400    3.5500    3.5600    3.5700    3.5800    3.5900
    3.6000    3.6100    3.6200    3.6300    3.6400    3.6500    3.6600    3.6700
    3.6800    3.6900    3.7000    3.7100    3.7200    3.7300    3.7400    3.7500
    3.7600    3.7700    3.7800    3.7900    3.8000    3.8100    3.8200    3.8300
    3.8400    3.8500    3.8600    3.8700    3.8800    3.8900    3.9000    3.9100
    3.9200    3.9300    3.9400    3.9500    3.9600    3.9700    3.9800    3.9900
    4.0000    4.0100    4.0200    4.0300    4.0400    4.0500    4.0600    4.0700
    4.0800    4.0900    4.1000    4.1100    4.1200    4.1300    4.1400    4.1500
    4.1600    4.1700    4.1800    4.1900    4.2000    4.2100    4.2200    4.2300
    4.2400    4.2500    4.2600    4.2700    4.2800    4.2900    4.3000    4.3100
    4.3200    4.3300    4.3400    4.3500    4.3600    4.3700    4.3800    4.3900
    4.4000    4.4100    4.4200    4.4300    4.4400    4.4500    4.4600    4.4700
    4.4800    4.4900    4.5000    4.5100    4.5200    4.5300    4.5400    4.5500
    4.5600    4.5700    4.5800    4.5900    4.6000    4.6100    4.6200    4.6300
    4.6400    4.6500    4.6600    4.6700    4.6800    4.6900    4.7000    4.7100
    4.7200    4.7300    4.7400    4.7500    4.7600    4.7700    4.7800    4.7900
    4.8000    4.8100    4.8200    4.8300    4.8400    4.8500    4.8600    4.8700
    4.8800    4.8900    4.9000    4.9100    4.9200    4.9300    4.9400    4.9500
    4.9600    4.9700    4.9800    4.9900    5.0000    5.0100    5.0200    5.0300
    5.0400    5.0500    5.0600    5.0700    5.0800    5.0900    5.1000    5.1100
    5.1200    5.1300    5.1400    5.1500    5.1600    5.1700    5.1800    5.1900
    5.2000    5.2100    5.2200    5.2300    5.2400    5.2500    5.2600    5.2700
    5.2800    5.2900    5.3000    5.3100    5.3200    5.3300    5.3400    5.3500
    5.3600    5.3700    5.3800    5.3900    5.4000    5.4100    5.4200    5.4300
    5.4400    5.4500    5.4600    5.4700    5.4800    5.4900    5.5000    5.5100
    5.5200    5.5300    5.5400    5.5500    5.5600    5.5700    5.5800    5.5900
    5.6000    5.6100    5.6200    5.6300    5.6400    5.6500    5.6600    5.6700
    5.6800    5.6900    5.7000    5.7100    5.7200    5.7300    5.7400    5.7500
    5.7600    5.7700    5.7800    5.7900    5.8000    5.8100    5.8200    5.8300
    5.8400    5.8500    5.8600    5.8700    5.8800    5.8900    5.9000    5.9100
    5.9200    5.9300    5.9400    5.9500    5.9600    5.9700    5.9800    5.9900
    6.0000    6.0100
   </PP_R>
   <PP_RAB type="real"  size=" 602" columns="8">
    0.0100    0.0100    0.0100    0.0100    0.0100    0.0100    0.0100    0.0100
    0.0100    0.0100    0.0100    0.0100    0.0100    0.0100    0.0100    0.0100
    0.0100    0.0100    0.0100    0.0100    0.0100    0.0100    0.0100    0.0100
    0.0100    0.0100    0.0100    0.0100    0.0100    0.0100    0.0100    0.0100
    0.0100    0.0100    0.0100    0.0100    0.0100    0.0100    0.0100    0.0100
    0.0100    0.0100    0.0100    0.0100    0.0100    0.0100    0.0100    0.0100
    0.0100    0.0100    0.0100    0.0100    0.0100    0.0100    0.0100    0.0100
    0.0100    0.0100    0.0100    0.0100    0.0100    0.0100    0.0100    0.0100
    0.0100    0.0100    0.0100    0.0100    0.0100    0.0100    0.0100    0.0100
    0.0100    0.0100    0.0100    0.0100    0.0100    0.0100    0.0100    0.0100
    0.0100    0.0100    0.0100    0.0100    0.0100    0.0100    0.0100    0.0100
    0.0100    0.0100    0.0100    0.0100    0.0100    0.0100    0.0100    0.0100
    0.0100    0.0100    0.0100    0.0100    0.0100    0.0100    0.0100    0.0100
    0.0100    0.0100    0.0100    0.0100    0.0100    0.0100    0.0100    0.0100
    0.0100    0.0100    0.0100    0.0100    0.0100    0.0100    0.0100    0.0100
    0.0100    0.0100    0.0100    0.0100    0.0100    0.0100    0.0100    0.0100
    0.0100    0.0100    0.0100    0.0100    0.0100    0.0100    0.0100    0.0100
    0.0100    0.0100    0.0100    0.0100    0.0100    0.0100    0.0100    0.0100
    0.0100    0.0100    0.0100    0.0100    0.0100    0.0100    0.0100    0.0100
    0.0100    0.0100    0.0100    0.0100    0.0100    0.0100    0.0100    0.0100
    0.0100    0.0100    0.0100    0.0100    0.0100    0.0100    0.0100    0.0100
    0.0100    0.0100    0.0100    0.0100    0.0100    0.0100    0.0100    0.0100
    0.0100    0.0100    0.0100    0.0100    0.0100    0.0100    0.0100    0.0100
    0.0100    0.0100    0.0100    0.0100    0.0100    0.0100    0.0100    0.0100
    0.0100    0.0100    0.0100    0.0100    0.0100    0.0100    0.0100    0.0100
    0.0100    0.0100    0.0100    0.0100    0.0100    0.0100    0.0100    0.0100
    0.0100    0.0100    0.0100    0.0100    0.0100    0.0100    0.0100    0.0100
    0.0100    0.0100    0.0100    0.0100    0.0100    0.0100    0.0100    0.0100
    0.0100    0.0100    0.0100    0.0100    0.0100    0.0100    0.0100    0.0100
    0.0100    0.0100    0.0100    0.0100    0.0100    0.0100    0.0100    0.0100
    0.0100    0.0100    0.0100    0.0100    0.0100    0.0100    0.0100    0.0100
    0.0100    0.0100    0.0100    0.0100    0.0100    0.0100    0.0100    0.0100
    0.0100    0.0100    0.0100    0.0100    0.0100    0.0100    0.0100    0.0100
    0.0100    0.0100    0.0100    0.0100    0.0100    0.0100    0.0100    0.0100
    0.0100    0.0100    0.0100    0.0100    0.0100    0.0100    0.0100    0.0100
    0.0100    0.0100    0.0100    0.0100    0.0100    0.0100    0.0100    0.0100
    0.0100    0.0100    0.0100    0.0100    0.0100    0.0100    0.0100    0.0100
    0.0100    0.0100    0.0100    0.0100    0.0100    0.0100    0.0100    0.0100
    0.0100    0.0100    0.0100    0.0100    0.0100    0.0100    0.0100    0.0100
    0.0100    0.0100    0.0100    0.0100    0.0100    0.0100    0.0100    0.0100
    0.0100    0.0100    0.0100    0.0100    0.0100    0.0100    0.0100    0.0100
    0.0100    0.0100    0.0100    0.0100    0.0100    0.0100    0.0100    0.0100
    0.0100    0.0100    0.0100    0.0100    0.0100    0.0100    0.0100    0.0100
    0.0100    0.0100    0.0100    0.0100    0.0100    0.0100    0.0100    0.0100
    0.0100    0.0100    0.0100    0.0100    0.0100    0.0100    0.0100    0.0100
    0.0100    0.0100    0.0100    0.0100    0.0100    0.0100    0.0100    0.0100
    0.0100    0.0100    0.0100    0.0100    0.0100    0.0100    0.0100    0.0100
    0.0100    0.0100    0.0100    0.0100    0.0100    0.0100    0.0100    0.0100
    0.0100    0.0100    0.0100    0.0100    0.0100    0.0100    0.0100    0.0100
    0.0100    0.0100    0.0100    0.0100    0.0100    0.0100    0.0100    0.0100
    0.0100    0.0100    0.0100    0.0100    0.0100    0.0100    0.0100    0.0100
    0.0100    0.0100    0.0100    0.0100    0.0100    0.0100    0.0100    0.0100
    0.0100    0.0100    0.0100    0.0100    0.0100    0.0100    0.0100    0.0100
    0.0100    0.0100    0.0100    0.0100    0.0100    0.0100    0.0100    0.0100
    0.0100    0.0100    0.0100    0.0100    0.0100    0.0100    0.0100    0.0100
    0.0100    0.0100    0.0100    0.0100    0.0100    0.0100    0.0100    0.0100
    0.0100    0.0100    0.0100    0.0100    0.0100    0.0100    0.0100    0.0100
    0.0100    0.0100    0.0100    0.0100    0.0100    0.0100    0.0100    0.0100
    0.0100    0.0100    0.0100    0.0100    0.0100    0.0100    0.0100    0.0100
    0.0100    0.0100    0.0100    0.0100    0.0100    0.0100    0.0100    0.0100
    0.0100    0.0100    0.0100    0.0100    0.0100    0.0100    0.0100    0.0100
    0.0100    0.0100    0.0100    0.0100    0.0100    0.0100    0.0100    0.0100
    0.0100    0.0100    0.0100    0.0100    0.0100    0.0100    0.0100    0.0100
    0.0100    0.0100    0.0100    0.0100    0.0100    0.0100    0.0100    0.0100
    0.0100    0.0100    0.0100    0.0100    0.0100    0.0100    0.0100    0.0100
    0.0100    0.0100    0.0100    0.0100    0.0100    0.0100    0.0100    0.0100
    0.0100    0.0100    0.0100    0.0100    0.0100    0.0100    0.0100    0.0100
    0.0100    0.0100    0.0100    0.0100    0.0100    0.0100    0.0100    0.0100
    0.0100    0.0100    0.0100    0.0100    0.0100    0.0100    0.0100    0.0100
    0.0100    0.0100    0.0100    0.0100    0.0100    0.0100    0.0100    0.0100
    0.0100    0.0100    0.0100    0.0100    0.0100    0.0100    0.0100    0.0100
    0.0100    0.0100    0.0100    0.0100    0.0100    0.0100    0.0100    0.0100
    0.0100    0.0100    0.0100    0.0100    0.0100    0.0100    0.0100    0.0100
    0.0100    0.0100    0.0100    0.0100    0.0100    0.0100    0.0100    0.0100
    0.0100    0.0100    0.0100    0.0100    0.0100    0.0100    0.0100    0.0100
    0.0100    0.0100
   </PP_RAB>
 </PP_MESH>
  <PP_LOCAL type="real"  size=" 602" columns="4">
   -3.3163882628E+01   -3.2951327925E+01   -3.2902018955E+01   -3.2912591210E+01
   -3.2879680183E+01   -3.2831875125E+01   -3.2773633599E+01   -3.2705997233E+01
   -3.2629402114E+01   -3.2544151575E+01   -3.2450509589E+01   -3.2348721417E+01
   -3.2239019251E+01   -3.2121624744E+01   -3.1996750824E+01   -3.1864603144E+01
   -3.1725381170E+01   -3.1579278895E+01   -3.1426485189E+01   -3.1267183822E+01
   -3.1101553238E+01   -3.0929766106E+01   -3.0751988726E+01   -3.0568380336E+01
   -3.0379092365E+01   -3.0184267657E+01   -2.9984039759E+01   -2.9778532223E+01
   -2.9567858059E+01   -2.9352119294E+01   -2.9131406700E+01   -2.8905799732E+01
   -2.8675366693E+01   -2.8440165109E+01   -2.8200242445E+01   -2.7955637042E+01
   -2.7706379380E+01   -2.7452493616E+01   -2.7193999434E+01   -2.6930914129E+01
   -2.6663254965E+01   -2.6391041734E+01   -2.6114299481E+01   -2.5833061353E+01
   -2.5547371500E+01   -2.5257287976E+01   -2.4962885566E+01   -2.4664258427E+01
   -2.4361522531E+01   -2.4054817956E+01   -2.3744310505E+01   -2.3430192911E+01
   -2.3112686012E+01   -2.2792038897E+01   -2.2468528075E+01   -2.2142457669E+01
   -2.1814156547E+01   -2.1483977371E+01   -2.1152292917E+01   -2.0819493846E+01
   -2.0485984250E+01   -2.0152178653E+01   -1.9818497418E+01   -1.9485363008E+01
   -1.9153195911E+01   -1.8822411074E+01   -1.8493414453E+01   -1.8166599743E+01
   -1.7842346236E+01   -1.7521016882E+01   -1.7202956405E+01   -1.6888490333E+01
   -1.6577924798E+01   -1.6271546268E+01   -1.5969621755E+01   -1.5672399486E+01
   -1.5380108973E+01   -1.5092962357E+01   -1.4811155141E+01   -1.4534866990E+01
   -1.4264262529E+01   -1.3999492052E+01   -1.3740692139E+01   -1.3487986152E+01
   -1.3241484611E+01   -1.3001285449E+01   -1.2767474164E+01   -1.2540123860E+01
   -1.2319295213E+01   -1.2105036361E+01   -1.1897382741E+01   -1.1696356894E+01
   -1.1501968239E+01   -1.1314212853E+01   -1.1133073242E+01   -1.0958518435E+01
   -1.0790503103E+01   -1.0628967715E+01   -1.0473838604E+01   -1.0325027736E+01
   -1.0182432650E+01   -1.0045936422E+01   -9.9154082593E+00   -9.7907019733E+00
   -9.6716566921E+00   -9.5580972892E+00   -9.4498340686E+00   -9.3466634113E+00
   -9.2483663382E+00   -9.1547082380E+00   -9.0654410061E+00   -8.9802899842E+00
   -8.8989395168E+00   -8.8210038858E+00   -8.7460743912E+00   -8.6737305509E+00
   -8.6035547855E+00   -8.5351681398E+00   -8.4682319266E+00   -8.4024476689E+00
   -8.3375828614E+00   -8.2734596412E+00   -8.2099402709E+00   -8.1469342172E+00
   -8.0843952913E+00   -8.0222971008E+00   -7.9606371106E+00   -7.8994335779E+00
   -7.8387096931E+00   -7.7784969181E+00   -7.7188293843E+00   -7.6597406158E+00
   -7.6012635449E+00   -7.5434265731E+00   -7.4862566303E+00   -7.4297752437E+00
   -7.3739997164E+00   -7.3189459711E+00   -7.2646225114E+00   -7.2110371183E+00
   -7.1581936840E+00   -7.1060923844E+00   -7.0547329791E+00   -7.0041106074E+00
   -6.9542203308E+00   -6.9050548751E+00   -6.8566055152E+00   -6.8088631297E+00
   -6.7618166440E+00   -6.7154552438E+00   -6.6697667917E+00   -6.6247391972E+00
   -6.5803598174E+00   -6.5366159051E+00   -6.4934945593E+00   -6.4509828847E+00
   -6.4090679183E+00   -6.3677369501E+00   -6.3269771548E+00   -6.2867761679E+00
   -6.2471215076E+00   -6.2080012154E+00   -6.1694032869E+00   -6.1313162254E+00
   -6.0937285722E+00   -6.0566293317E+00   -6.0200076168E+00   -5.9838529600E+00
   -5.9481550422E+00   -5.9129039416E+00   -5.8780898856E+00   -5.8437035072E+00
   -5.8097355478E+00   -5.7761771989E+00   -5.7430196779E+00   -5.7102547337E+00
   -5.6778740200E+00   -5.6458698386E+00   -5.6142342407E+00   -5.5829600719E+00
   -5.5520397406E+00   -5.5214666115E+00   -5.4912334877E+00   -5.4613341815E+00
   -5.4317620434E+00   -5.4025112196E+00   -5.3735757251E+00   -5.3449499544E+00
   -5.3166285499E+00   -5.2886061126E+00   -5.2608777545E+00   -5.2334382748E+00
   -5.2062830573E+00   -5.1794071138E+00   -5.1528060431E+00   -5.1264753204E+00
   -5.1004105967E+00   -5.0746077482E+00   -5.0490624704E+00   -5.0237709843E+00
   -4.9987291834E+00   -4.9739334102E+00   -4.9493799131E+00   -4.9250650249E+00
   -4.9009853641E+00   -4.8771372684E+00   -4.8535175936E+00   -4.8301229505E+00
   -4.8069501488E+00   -4.7839961507E+00   -4.7612577185E+00   -4.7387320527E+00
   -4.7164161245E+00   -4.6943070904E+00   -4.6724022369E+00   -4.6506986497E+00
   -4.6291938183E+00   -4.6078850388E+00   -4.5867697119E+00   -4.5658454054E+00
   -4.5451095061E+00   -4.5245596862E+00   -4.5041935500E+00   -4.4840086657E+00
   -4.4640028432E+00   -4.4441737388E+00   -4.4245191360E+00   -4.4050369039E+00
   -4.3857247753E+00   -4.3665807134E+00   -4.3476026275E+00   -4.3287883692E+00
   -4.3101360064E+00   -4.2916434926E+00   -4.2733088222E+00   -4.2551301139E+00
   -4.2371053805E+00   -4.2192327368E+00   -4.2015103495E+00   -4.1839362897E+00
   -4.1665087735E+00   -4.1492260139E+00   -4.1320861377E+00   -4.1150874475E+00
   -4.0982282027E+00   -4.0815065857E+00   -4.0649209728E+00   -4.0484696636E+00
   -4.0321508939E+00   -4.0159631249E+00   -3.9999047142E+00   -3.9839739304E+00
   -3.9681694099E+00   -3.9524896323E+00   -3.9369330083E+00   -3.9214982339E+00
   -3.9061838883E+00   -3.8909884992E+00   -3.8759107742E+00   -3.8609493514E+00
   -3.8461027758E+00   -3.8313698492E+00   -3.8167492783E+00   -3.8022396897E+00
   -3.7878399134E+00   -3.7735487247E+00   -3.7593648217E+00   -3.7452870576E+00
   -3.7313142779E+00   -3.7174452538E+00   -3.7036788512E+00   -3.6900139860E+00
   -3.6764495035E+00   -3.6629842736E+00   -3.6496172814E+00   -3.6363474473E+00
   -3.6231736384E+00   -3.6100949069E+00   -3.5971102310E+00   -3.5842185238E+00
   -3.5714188477E+00   -3.5587102460E+00   -3.5460917061E+00   -3.5335622665E+00
   -3.5211210425E+00   -3.5087670982E+00   -3.4964994426E+00   -3.4843172599E+00
   -3.4722196634E+00   -3.4602057151E+00   -3.4482745792E+00   -3.4364254375E+00
   -3.4246574288E+00   -3.4129696708E+00   -3.4013614169E+00   -3.3898318608E+00
   -3.3783801444E+00   -3.3670055155E+00   -3.3557072283E+00   -3.3444845023E+00
   -3.3333365250E+00   -3.3222626232E+00   -3.3112620637E+00   -3.3003340722E+00
   -3.2894779438E+00   -3.2786930105E+00   -3.2679785731E+00   -3.2573338690E+00
   -3.2467582877E+00   -3.2362511670E+00   -3.2258118214E+00   -3.2154395608E+00
   -3.2051337990E+00   -3.1948939001E+00   -3.1847191913E+00   -3.1746090589E+00
   -3.1645629271E+00   -3.1545801897E+00   -3.1446601895E+00   -3.1348023786E+00
   -3.1250061929E+00   -3.1152710543E+00   -3.1055963245E+00   -3.0959815101E+00
   -3.0864260612E+00   -3.0769294184E+00   -3.0674909885E+00   -3.0581102988E+00
   -3.0487868237E+00   -3.0395200232E+00   -3.0303093449E+00   -3.0211543339E+00
   -3.0120544891E+00   -3.0030092919E+00   -2.9940182224E+00   -2.9850808451E+00
   -2.9761966819E+00   -2.9673652378E+00   -2.9585860174E+00   -2.9498586059E+00
   -2.9411825477E+00   -2.9325573726E+00   -2.9239826024E+00   -2.9154578447E+00
   -2.9069826651E+00   -2.8985566200E+00   -2.8901792414E+00   -2.8818501608E+00
   -2.8735689639E+00   -2.8653352351E+00   -2.8571485107E+00   -2.8490084467E+00
   -2.8409146483E+00   -2.8328667206E+00   -2.8248642247E+00   -2.8169068158E+00
   -2.8089941262E+00   -2.8011257793E+00   -2.7933013673E+00   -2.7855205341E+00
   -2.7777829417E+00   -2.7700882310E+00   -2.7624360272E+00   -2.7548259572E+00
   -2.7472577135E+00   -2.7397309539E+00   -2.7322453360E+00   -2.7248004707E+00
   -2.7173960763E+00   -2.7100318278E+00   -2.7027073990E+00   -2.6954224353E+00
   -2.6881766263E+00   -2.6809696816E+00   -2.6738012900E+00   -2.6666711339E+00
   -2.6595788701E+00   -2.6525242420E+00   -2.6455069531E+00   -2.6385267066E+00
   -2.6315831766E+00   -2.6246760871E+00   -2.6178051724E+00   -2.6109701496E+00
   -2.6041707322E+00   -2.5974066015E+00   -2.5906775281E+00   -2.5839832425E+00
   -2.5773234751E+00   -2.5706979349E+00   -2.5641063559E+00   -2.5575485044E+00
   -2.5510241231E+00   -2.5445329550E+00   -2.5380747083E+00   -2.5316491619E+00
   -2.5252560788E+00   -2.5188952140E+00   -2.5125663183E+00   -2.5062691140E+00
   -2.5000034049E+00   -2.4937689571E+00   -2.4875655372E+00   -2.4813928979E+00
   -2.4752507943E+00   -2.4691390314E+00   -2.4630573865E+00   -2.4570056367E+00
   -2.4509835395E+00   -2.4449908759E+00   -2.4390274542E+00   -2.4330930620E+00
   -2.4271874868E+00   -2.4213104927E+00   -2.4154618805E+00   -2.4096414636E+00
   -2.4038490396E+00   -2.3980844057E+00   -2.3923473348E+00   -2.3866376413E+00
   -2.3809551458E+00   -2.3752996552E+00   -2.3696709764E+00   -2.3640688923E+00
   -2.3584932257E+00   -2.3529438062E+00   -2.3474204497E+00   -2.3419229721E+00
   -2.3364511682E+00   -2.3310048638E+00   -2.3255838994E+00   -2.3201880992E+00
   -2.3148172878E+00   -2.3094712738E+00   -2.3041498810E+00   -2.2988529620E+00
   -2.2935803495E+00   -2.2883318762E+00   -2.2831073658E+00   -2.2779066356E+00
   -2.2727295522E+00   -2.2675759559E+00   -2.2624456872E+00   -2.2573385866E+00
   -2.2522544610E+00   -2.2471931916E+00   -2.2421546263E+00   -2.2371386130E+00
   -2.2321449995E+00   -2.2271736111E+00   -2.2222243123E+00   -2.2172969687E+00
   -2.2123914354E+00   -2.2075075673E+00   -2.2026452095E+00   -2.1978042061E+00
   -2.1929844415E+00   -2.1881857774E+00   -2.1834080755E+00   -2.1786511976E+00
   -2.1739149784E+00   -2.1691993075E+00   -2.1645040575E+00   -2.1598290967E+00
   -2.1551742932E+00   -2.1505395043E+00   -2.1459245909E+00   -2.1413294474E+00
   -2.1367539483E+00   -2.1321979677E+00   -2.1276613801E+00   -2.1231440364E+00
   -2.1186458316E+00   -2.1141666530E+00   -2.1097063807E+00   -2.1052648948E+00
   -2.1008420716E+00   -2.0964377703E+00   -2.0920519022E+00   -2.0876843530E+00
   -2.0833350085E+00   -2.0790037543E+00   -2.0746904640E+00   -2.0703950210E+00
   -2.0661173330E+00   -2.0618572912E+00   -2.0576147866E+00   -2.0533897103E+00
   -2.0491819353E+00   -2.0449913637E+00   -2.0408179018E+00   -2.0366614458E+00
   -2.0325218918E+00   -2.0283991360E+00   -2.0242930529E+00   -2.0202035581E+00
   -2.0161305586E+00   -2.0120739553E+00   -2.0080336491E+00   -2.0040095411E+00
   -2.0000015090E+00   -1.9960094774E+00   -1.9920333556E+00   -1.9880730490E+00
   -1.9841284633E+00   -1.9801995041E+00   -1.9762860539E+00   -1.9723880421E+00
   -1.9685053818E+00   -1.9646379829E+00   -1.9607857556E+00   -1.9569486097E+00
   -1.9531264342E+00   -1.9493191590E+00   -1.9455267028E+00   -1.9417489798E+00
   -1.9379859042E+00   -1.9342373902E+00   -1.9305033348E+00   -1.9267836641E+00
   -1.9230783043E+00   -1.9193871735E+00   -1.9157101899E+00   -1.9120472717E+00
   -1.9083983253E+00   -1.9047632697E+00   -1.9011420396E+00   -1.8975345570E+00
   -1.8939407441E+00   -1.8903605226E+00   -1.8867938100E+00   -1.8832405145E+00
   -1.8797005808E+00   -1.8761739346E+00   -1.8726605015E+00   -1.8691602072E+00
   -1.8656729772E+00   -1.8621987177E+00   -1.8587373730E+00   -1.8552888759E+00
   -1.8518531554E+00   -1.8484301408E+00   -1.8450197610E+00   -1.8416219360E+00
   -1.8382365917E+00   -1.8348636742E+00   -1.8315031159E+00   -1.8281548492E+00
   -1.8248188065E+00   -1.8214949202E+00   -1.8181831029E+00   -1.8148833072E+00
   -1.8115954710E+00   -1.8083195299E+00   -1.8050554194E+00   -1.8018030751E+00
   -1.7985624258E+00   -1.7953333996E+00   -1.7921159500E+00   -1.7889100158E+00
   -1.7857155353E+00   -1.7825324472E+00   -1.7793606901E+00   -1.7762001889E+00
   -1.7730508897E+00   -1.7699127417E+00   -1.7667856864E+00   -1.7636696652E+00
   -1.7605646194E+00   -1.7574704906E+00   -1.7543872017E+00   -1.7513147127E+00
   -1.7482529699E+00   -1.7452019175E+00   -1.7421614997E+00   -1.7391316606E+00
   -1.7361123431E+00   -1.7331034739E+00   -1.7301050185E+00   -1.7271169238E+00
   -1.7241391365E+00   -1.7211716032E+00   -1.7182142709E+00   -1.7152670832E+00
   -1.7123299734E+00   -1.7094029076E+00   -1.7064858349E+00   -1.7035787046E+00
   -1.7006814660E+00   -1.6977940681E+00   -1.6949164574E+00   -1.6920485701E+00
   -1.6891903740E+00   -1.6863418207E+00   -1.6835028619E+00   -1.6806734491E+00
   -1.6778535339E+00   -1.6750430665E+00   -1.6722419827E+00   -1.6694502538E+00
   -1.6666678335E+00   -1.6638946757E+00
  </PP_LOCAL>
 <PP_NONLOCAL>
   <PP_BETA.1
       type="real"
       size=" 602"
       columns="4"
       index="1"
       angular_momentum="0"
       cutoff_radius_index=" 254"
       cutoff_radius="    2.5300000000E+00" >
    0.0000000000E+00    3.3778012607E-02    6.7554772448E-02    1.0132886277E-01
    1.3509853993E-01    1.6886157253E-01    2.0261508379E-01    2.3635539804E-01
    2.7007789235E-01    3.0377685445E-01    3.3744534758E-01    3.7107508351E-01
    4.0465630435E-01    4.3817767416E-01    4.7162618103E-01    5.0498705037E-01
    5.3824367019E-01    5.7137752879E-01    6.0436816567E-01    6.3719313583E-01
    6.6982798818E-01    7.0224625816E-01    7.3441947499E-01    7.6631718367E-01
    7.9790698182E-01    8.2915457153E-01    8.6002382580E-01    8.9047687011E-01
    9.2047417813E-01    9.4997468173E-01    9.7893589496E-01    1.0073140513E+00
    1.0350642530E+00    1.0621406350E+00    1.0884965370E+00    1.1140846885E+00
    1.1388574035E+00    1.1627667847E+00    1.1857649318E+00    1.2078041626E+00
    1.2288372383E+00    1.2488175894E+00    1.2676995499E+00    1.2854385922E+00
    1.3019915626E+00    1.3173169179E+00    1.3313749589E+00    1.3441280597E+00
    1.3555408949E+00    1.3655806716E+00    1.3742173318E+00    1.3814237497E+00
    1.3871759546E+00    1.3914533073E+00    1.3942386335E+00    1.3955184721E+00
    1.3952831144E+00    1.3935268329E+00    1.3902479017E+00    1.3854487912E+00
    1.3791361248E+00    1.3713208724E+00    1.3620182689E+00    1.3512478861E+00
    1.3390336426E+00    1.3254037228E+00    1.3103905624E+00    1.2940307896E+00
    1.2763650944E+00    1.2574381223E+00    1.2372983500E+00    1.2159979140E+00
    1.1935924208E+00    1.1701407484E+00    1.1457048211E+00    1.1203493758E+00
    1.0941416750E+00    1.0671512417E+00    1.0394495622E+00    1.0111097744E+00
    9.8220634222E-01    9.5281472012E-01    9.2301100661E-01    8.9287159017E-01
    8.6247278914E-01    8.3189048757E-01    8.0119976955E-01    7.7047455398E-01
    7.3978723240E-01    7.0920831230E-01    6.7880606840E-01    6.4864620477E-01
    6.1879153024E-01    5.8930165019E-01    5.6023267730E-01    5.3163705890E-01
    5.0356310884E-01    4.7605489393E-01    4.4915210963E-01    4.2288988361E-01