<UPF version="2.0.1">
  <PP_INFO>

 Xe_ONCV_PBE-1.0.upf

 This pseudopotential file has been produced using the code
 ONCVPSP  (Optimized Norm-Conservinng Vanderbilt PSeudopotential)
 scalar-relativistic version 2.1.1, 03/26/2014 by D. R. Hamann
 The code is available through a link at URL www.mat-simresearch.com.
 Documentation with the package provides a full discription of the
 input data below.


 While it is not required under the terms of the GNU GPL, it is
 suggested that you cite D. R. Hamann, Phys. Rev. B 88, 085117 (2013)
 in any publication using these pseudopotentials.


 Copyright 2015 The Regents of the University of California
 
 This work is licensed under the Creative Commons Attribution-ShareAlike 
 4.0 International License. To view a copy of this license, visit 
 http://creativecommons.org/licenses/by-sa/4.0/ or send a letter to 
 Creative Commons, PO Box 1866, Mountain View, CA 94042, USA.
 
 This pseudopotential is part of the Schlipf-Gygi norm-conserving 
 pseudopotential library. Its construction parameters were tuned to 
 reproduce materials of a training set with very high accuracy and 
 should be suitable as a general purpose pseudopotential to treat a 
 variety of different compounds. For details of the construction and 
 testing of the pseudopotential please refer to:
 
 [insert reference to paper here]
 
 We kindly ask that you include this reference in all publications 
 associated to this pseudopotential.


    <PP_INPUTFILE>
# ATOM AND REFERENCE CONFIGURATION
# atsym  z    nc    nv    iexc   psfile
  Xe 54.00     8     3     4      upf
#
#   n    l    f        energy (Ha)
    1    0    2.00
    2    0    2.00
    2    1    6.00
    3    0    2.00
    3    1    6.00
    3    2   10.00
    4    0    2.00
    4    1    6.00
    4    2   10.00
    5    0    2.00
    5    1    6.00
#
# PSEUDOPOTENTIAL AND OPTIMIZATION
# lmax
    2
#
#   l,   rc,     ep,   ncon, nbas, qcut
    0   3.23389  -0.72551    5    8   5.37676
    1   3.27269  -0.30261    5    8   5.42791
    2   2.57807  -2.18230    5    8   6.51609
#
# LOCAL POTENTIAL
# lloc, lpopt,  rc(5),   dvloc0
    4    5   2.45795      0.00000
#
# VANDERBILT-KLEINMAN-BYLANDER PROJECTORs
# l, nproj, debl
    0    2   1.17359
    1    2   0.94950
    2    2   2.44771
#
# MODEL CORE CHARGE
# icmod, fcfact
    0   0.00000
#
# LOG DERIVATIVE ANALYSIS
# epsh1, epsh2, depsh
   -5.00    3.00    0.02
#
# OUTPUT GRID
# rlmax, drl
    6.00    0.01
#
# TEST CONFIGURATIONS
# ncnf
    0
# nvcnf
#   n    l    f
    </PP_INPUTFILE>
  </PP_INFO>
  <!--                               -->
  <!-- END OF HUMAN READABLE SECTION -->
  <!--                               -->
    <PP_HEADER
       generated="Generated using ONCVPSP code by D. R. Hamann"
       author="Martin Schlipf and Francois Gygi"
       date="150116"
       comment=""
       element="Xe"
       pseudo_type="NC"
       relativistic="scalar"
       is_ultrasoft="F"
       is_paw="F"
       is_coulomb="F"
       has_so="F"
       has_wfc="F"
       has_gipaw="F"
       core_correction="F"
       functional="PBE"
       z_valence="   18.00"
       total_psenergy="  -1.16503764331E+02"
       rho_cutoff="   6.01000000000E+00"
       l_max="2"
       l_local="-1"
       mesh_size="   602"
       number_of_wfc="0"
       number_of_proj="6"/>
 <PP_MESH>
   <PP_R type="real"  size=" 602" columns="8">
    0.0000    0.0100    0.0200    0.0300    0.0400    0.0500    0.0600    0.0700
    0.0800    0.0900    0.1000    0.1100    0.1200    0.1300    0.1400    0.1500
    0.1600    0.1700    0.1800    0.1900    0.2000    0.2100    0.2200    0.2300
    0.2400    0.2500    0.2600    0.2700    0.2800    0.2900    0.3000    0.3100
    0.3200    0.3300    0.3400    0.3500    0.3600    0.3700    0.3800    0.3900
    0.4000    0.4100    0.4200    0.4300    0.4400    0.4500    0.4600    0.4700
    0.4800    0.4900    0.5000    0.5100    0.5200    0.5300    0.5400    0.5500
    0.5600    0.5700    0.5800    0.5900    0.6000    0.6100    0.6200    0.6300
    0.6400    0.6500    0.6600    0.6700    0.6800    0.6900    0.7000    0.7100
    0.7200    0.7300    0.7400    0.7500    0.7600    0.7700    0.7800    0.7900
    0.8000    0.8100    0.8200    0.8300    0.8400    0.8500    0.8600    0.8700
    0.8800    0.8900    0.9000    0.9100    0.9200    0.9300    0.9400    0.9500
    0.9600    0.9700    0.9800    0.9900    1.0000    1.0100    1.0200    1.0300
    1.0400    1.0500    1.0600    1.0700    1.0800    1.0900    1.1000    1.1100
    1.1200    1.1300    1.1400    1.1500    1.1600    1.1700    1.1800    1.1900
    1.2000    1.2100    1.2200    1.2300    1.2400    1.2500    1.2600    1.2700
    1.2800    1.2900    1.3000    1.3100    1.3200    1.3300    1.3400    1.3500
    1.3600    1.3700    1.3800    1.3900    1.4000    1.4100    1.4200    1.4300
    1.4400    1.4500    1.4600    1.4700    1.4800    1.4900    1.5000    1.5100
    1.5200    1.5300    1.5400    1.5500    1.5600    1.5700    1.5800    1.5900
    1.6000    1.6100    1.6200    1.6300    1.6400    1.6500    1.6600    1.6700
    1.6800    1.6900    1.7000    1.7100    1.7200    1.7300    1.7400    1.7500
    1.7600    1.7700    1.7800    1.7900    1.8000    1.8100    1.8200    1.8300
    1.8400    1.8500    1.8600    1.8700    1.8800    1.8900    1.9000    1.9100
    1.9200    1.9300    1.9400    1.9500    1.9600    1.9700    1.9800    1.9900
    2.0000    2.0100    2.0200    2.0300    2.0400    2.0500    2.0600    2.0700
    2.0800    2.0900    2.1000    2.1100    2.1200    2.1300    2.1400    2.1500
    2.1600    2.1700    2.1800    2.1900    2.2000    2.2100    2.2200    2.2300
    2.2400    2.2500    2.2600    2.2700    2.2800    2.2900    2.3000    2.3100
    2.3200    2.3300    2.3400    2.3500    2.3600    2.3700    2.3800    2.3900
    2.4000    2.4100    2.4200    2.4300    2.4400    2.4500    2.4600    2.4700
    2.4800    2.4900    2.5000    2.5100    2.5200    2.5300    2.5400    2.5500
    2.5600    2.5700    2.5800    2.5900    2.6000    2.6100    2.6200    2.6300
    2.6400    2.6500    2.6600    2.6700    2.6800    2.6900    2.7000    2.7100
    2.7200    2.7300    2.7400    2.7500    2.7600    2.7700    2.7800    2.7900
    2.8000    2.8100    2.8200    2.8300    2.8400    2.8500    2.8600    2.8700
    2.8800    2.8900    2.9000    2.9100    2.9200    2.9300    2.9400    2.9500
    2.9600    2.9700    2.9800    2.9900    3.0000    3.0100    3.0200    3.0300
    3.0400    3.0500    3.0600    3.0700    3.0800    3.0900    3.1000    3.1100
    3.1200    3.1300    3.1400    3.1500    3.1600    3.1700    3.1800    3.1900
    3.2000    3.2100    3.2200    3.2300    3.2400    3.2500    3.2600    3.2700
    3.2800    3.2900    3.3000    3.3100    3.3200    3.3300    3.3400    3.3500
    3.3600    3.3700    3.3800    3.3900    3.4000    3.4100    3.4200    3.4300
    3.4400    3.4500    3.4600    3.4700    3.4800    3.4900    3.5000    3.5100
    3.5200    3.5300    3.5400    3.5500    3.5600    3.5700    3.5800    3.5900
    3.6000    3.6100    3.6200    3.6300    3.6400    3.6500    3.6600    3.6700
    3.6800    3.6900    3.7000    3.7100    3.7200    3.7300    3.7400    3.7500
    3.7600    3.7700    3.7800    3.7900    3.8000    3.8100    3.8200    3.8300
    3.8400    3.8500    3.8600    3.8700    3.8800    3.8900    3.9000    3.9100
    3.9200    3.9300    3.9400    3.9500    3.9600    3.9700    3.9800    3.9900
    4.0000    4.0100    4.0200    4.0300    4.0400    4.0500    4.0600    4.0700
    4.0800    4.0900    4.1000    4.1100    4.1200    4.1300    4.1400    4.1500
    4.1600    4.1700    4.1800    4.1900    4.2000    4.2100    4.2200    4.2300
    4.2400    4.2500    4.2600    4.2700    4.2800    4.2900    4.3000    4.3100
    4.3200    4.3300    4.3400    4.3500    4.3600    4.3700    4.3800    4.3900
    4.4000    4.4100    4.4200    4.4300    4.4400    4.4500    4.4600    4.4700
    4.4800    4.4900    4.5000    4.5100    4.5200    4.5300    4.5400    4.5500
    4.5600    4.5700    4.5800    4.5900    4.6000    4.6100    4.6200    4.6300
    4.6400    4.6500    4.6600    4.6700    4.6800    4.6900    4.7000    4.7100
    4.7200    4.7300    4.7400    4.7500    4.7600    4.7700    4.7800    4.7900
    4.8000    4.8100    4.8200    4.8300    4.8400    4.8500    4.8600    4.8700
    4.8800    4.8900    4.9000    4.9100    4.9200    4.9300    4.9400    4.9500
    4.9600    4.9700    4.9800    4.9900    5.0000    5.0100    5.0200    5.0300
    5.0400    5.0500    5.0600    5.0700    5.0800    5.0900    5.1000    5.1100
    5.1200    5.1300    5.1400    5.1500    5.1600    5.1700    5.1800    5.1900
    5.2000    5.2100    5.2200    5.2300    5.2400    5.2500    5.2600    5.2700
    5.2800    5.2900    5.3000    5.3100    5.3200    5.3300    5.3400    5.3500
    5.3600    5.3700    5.3800    5.3900    5.4000    5.4100    5.4200    5.4300
    5.4400    5.4500    5.4600    5.4700    5.4800    5.4900    5.5000    5.5100
    5.5200    5.5300    5.5400    5.5500    5.5600    5.5700    5.5800    5.5900
    5.6000    5.6100    5.6200    5.6300    5.6400    5.6500    5.6600    5.6700
    5.6800    5.6900    5.7000    5.7100    5.7200    5.7300    5.7400    5.7500
    5.7600    5.7700    5.7800    5.7900    5.8000    5.8100    5.8200    5.8300
    5.8400    5.8500    5.8600    5.8700    5.8800    5.8900    5.9000    5.9100
    5.9200    5.9300    5.9400    5.9500    5.9600    5.9700    5.9800    5.9900
    6.0000    6.0100
   </PP_R>
   <PP_RAB type="real"  size=" 602" columns="8">
    0.0100    0.0100    0.0100    0.0100    0.0100    0.0100    0.0100    0.0100
    0.0100    0.0100    0.0100    0.0100    0.0100    0.0100    0.0100    0.0100
    0.0100    0.0100    0.0100    0.0100    0.0100    0.0100    0.0100    0.0100
    0.0100    0.0100    0.0100    0.0100    0.0100    0.0100    0.0100    0.0100
    0.0100    0.0100    0.0100    0.0100    0.0100    0.0100    0.0100    0.0100
    0.0100    0.0100    0.0100    0.0100    0.0100    0.0100    0.0100    0.0100
    0.0100    0.0100    0.0100    0.0100    0.0100    0.0100    0.0100    0.0100
    0.0100    0.0100    0.0100    0.0100    0.0100    0.0100    0.0100    0.0100
    0.0100    0.0100    0.0100    0.0100    0.0100    0.0100    0.0100    0.0100
    0.0100    0.0100    0.0100    0.0100    0.0100    0.0100    0.0100    0.0100
    0.0100    0.0100    0.0100    0.0100    0.0100    0.0100    0.0100    0.0100
    0.0100    0.0100    0.0100    0.0100    0.0100    0.0100    0.0100    0.0100
    0.0100    0.0100    0.0100    0.0100    0.0100    0.0100    0.0100    0.0100
    0.0100    0.0100    0.0100    0.0100    0.0100    0.0100    0.0100    0.0100
    0.0100    0.0100    0.0100    0.0100    0.0100    0.0100    0.0100    0.0100
    0.0100    0.0100    0.0100    0.0100    0.0100    0.0100    0.0100    0.0100
    0.0100    0.0100    0.0100    0.0100    0.0100    0.0100    0.0100    0.0100
    0.0100    0.0100    0.0100    0.0100    0.0100    0.0100    0.0100    0.0100
    0.0100    0.0100    0.0100    0.0100    0.0100    0.0100    0.0100    0.0100
    0.0100    0.0100    0.0100    0.0100    0.0100    0.0100    0.0100    0.0100
    0.0100    0.0100    0.0100    0.0100    0.0100    0.0100    0.0100    0.0100
    0.0100    0.0100    0.0100    0.0100    0.0100    0.0100    0.0100    0.0100
    0.0100    0.0100    0.0100    0.0100    0.0100    0.0100    0.0100    0.0100
    0.0100    0.0100    0.0100    0.0100    0.0100    0.0100    0.0100    0.0100
    0.0100    0.0100    0.0100    0.0100    0.0100    0.0100    0.0100    0.0100
    0.0100    0.0100    0.0100    0.0100    0.0100    0.0100    0.0100    0.0100
    0.0100    0.0100    0.0100    0.0100    0.0100    0.0100    0.0100    0.0100
    0.0100    0.0100    0.0100    0.0100    0.0100    0.0100    0.0100    0.0100
    0.0100    0.0100    0.0100    0.0100    0.0100    0.0100    0.0100    0.0100
    0.0100    0.0100    0.0100    0.0100    0.0100    0.0100    0.0100    0.0100
    0.0100    0.0100    0.0100    0.0100    0.0100    0.0100    0.0100    0.0100
    0.0100    0.0100    0.0100    0.0100    0.0100    0.0100    0.0100    0.0100
    0.0100    0.0100    0.0100    0.0100    0.0100    0.0100    0.0100    0.0100
    0.0100    0.0100    0.0100    0.0100    0.0100    0.0100    0.0100    0.0100
    0.0100    0.0100    0.0100    0.0100    0.0100    0.0100    0.0100    0.0100
    0.0100    0.0100    0.0100    0.0100    0.0100    0.0100    0.0100    0.0100
    0.0100    0.0100    0.0100    0.0100    0.0100    0.0100    0.0100    0.0100
    0.0100    0.0100    0.0100    0.0100    0.0100    0.0100    0.0100    0.0100
    0.0100    0.0100    0.0100    0.0100    0.0100    0.0100    0.0100    0.0100
    0.0100    0.0100    0.0100    0.0100    0.0100    0.0100    0.0100    0.0100
    0.0100    0.0100    0.0100    0.0100    0.0100    0.0100    0.0100    0.0100
    0.0100    0.0100    0.0100    0.0100    0.0100    0.0100    0.0100    0.0100
    0.0100    0.0100    0.0100    0.0100    0.0100    0.0100    0.0100    0.0100
    0.0100    0.0100    0.0100    0.0100    0.0100    0.0100    0.0100    0.0100
    0.0100    0.0100    0.0100    0.0100    0.0100    0.0100    0.0100    0.0100
    0.0100    0.0100    0.0100    0.0100    0.0100    0.0100    0.0100    0.0100
    0.0100    0.0100    0.0100    0.0100    0.0100    0.0100    0.0100    0.0100
    0.0100    0.0100    0.0100    0.0100    0.0100    0.0100    0.0100    0.0100
    0.0100    0.0100    0.0100    0.0100    0.0100    0.0100    0.0100    0.0100
    0.0100    0.0100    0.0100    0.0100    0.0100    0.0100    0.0100    0.0100
    0.0100    0.0100    0.0100    0.0100    0.0100    0.0100    0.0100    0.0100
    0.0100    0.0100    0.0100    0.0100    0.0100    0.0100    0.0100    0.0100
    0.0100    0.0100    0.0100    0.0100    0.0100    0.0100    0.0100    0.0100
    0.0100    0.0100    0.0100    0.0100    0.0100    0.0100    0.0100    0.0100
    0.0100    0.0100    0.0100    0.0100    0.0100    0.0100    0.0100    0.0100
    0.0100    0.0100    0.0100    0.0100    0.0100    0.0100    0.0100    0.0100
    0.0100    0.0100    0.0100    0.0100    0.0100    0.0100    0.0100    0.0100
    0.0100    0.0100    0.0100    0.0100    0.0100    0.0100    0.0100    0.0100
    0.0100    0.0100    0.0100    0.0100    0.0100    0.0100    0.0100    0.0100
    0.0100    0.0100    0.0100    0.0100    0.0100    0.0100    0.0100    0.0100
    0.0100    0.0100    0.0100    0.0100    0.0100    0.0100    0.0100    0.0100
    0.0100    0.0100    0.0100    0.0100    0.0100    0.0100    0.0100    0.0100
    0.0100    0.0100    0.0100    0.0100    0.0100    0.0100    0.0100    0.0100
    0.0100    0.0100    0.0100    0.0100    0.0100    0.0100    0.0100    0.0100
    0.0100    0.0100    0.0100    0.0100    0.0100    0.0100    0.0100    0.0100
    0.0100    0.0100    0.0100    0.0100    0.0100    0.0100    0.0100    0.0100
    0.0100    0.0100    0.0100    0.0100    0.0100    0.0100    0.0100    0.0100
    0.0100    0.0100    0.0100    0.0100    0.0100    0.0100    0.0100    0.0100
    0.0100    0.0100    0.0100    0.0100    0.0100    0.0100    0.0100    0.0100
    0.0100    0.0100    0.0100    0.0100    0.0100    0.0100    0.0100    0.0100
    0.0100    0.0100    0.0100    0.0100    0.0100    0.0100    0.0100    0.0100
    0.0100    0.0100    0.0100    0.0100    0.0100    0.0100    0.0100    0.0100
    0.0100    0.0100    0.0100    0.0100    0.0100    0.0100    0.0100    0.0100
    0.0100    0.0100    0.0100    0.0100    0.0100    0.0100    0.0100    0.0100
    0.0100    0.0100    0.0100    0.0100    0.0100    0.0100    0.0100    0.0100
    0.0100    0.0100
   </PP_RAB>
 </PP_MESH>
  <PP_LOCAL type="real"  size=" 602" columns="4">
   -3.4954962015E+01   -3.4369378518E+01   -3.4936626689E+01   -3.6055458492E+01
   -3.7124625892E+01   -3.6802428262E+01   -3.5353839721E+01   -3.4267947237E+01
   -3.3879732954E+01   -3.3830622086E+01   -3.3864470738E+01   -3.3894247071E+01
   -3.3904704335E+01   -3.3899272492E+01   -3.3883407126E+01   -3.3861198880E+01
   -3.3835366035E+01   -3.3807752419E+01   -3.3779712992E+01   -3.3752337852E+01
   -3.3726563830E+01   -3.3703219079E+01   -3.3683029078E+01   -3.3666600303E+01
   -3.3654391121E+01   -3.3646676505E+01   -3.3643511218E+01   -3.3644697616E+01
   -3.3649762154E+01   -3.3657945924E+01   -3.3668213293E+01   -3.3679281365E+01
   -3.3689670968E+01   -3.3697777249E+01   -3.3701955382E+01   -3.3700615088E+01
   -3.3692316056E+01   -3.3675853497E+01   -3.3650330603E+01   -3.3615205210E+01
   -3.3570311298E+01   -3.3515852667E+01   -3.3452370403E+01   -3.3380688487E+01
   -3.3301843868E+01   -3.3217008508E+01   -3.3127411143E+01   -3.3034265840E+01
   -3.2938712878E+01   -3.2841775907E+01   -3.2744333565E+01   -3.2647108665E+01
   -3.2550671308E+01   -3.2455448006E+01   -3.2361739846E+01   -3.2269744167E+01
   -3.2179571798E+01   -3.2091270068E+01   -3.2004835691E+01   -3.1920231490E+01
   -3.1837395037E+01   -3.1756247899E+01   -3.1676700787E+01   -3.1598657221E+01
   -3.1522015801E+01   -3.1446670791E+01   -3.1372512000E+01   -3.1299424001E+01
   -3.1227284860E+01   -3.1155964199E+01   -3.1085321915E+01   -3.1015206616E+01
   -3.0945454547E+01   -3.0875888811E+01   -3.0806319318E+01   -3.0736543978E+01
   -3.0666350400E+01   -3.0595518677E+01   -3.0523825110E+01   -3.0451046758E+01
   -3.0376966631E+01   -3.0301379262E+01   -3.0224096323E+01   -3.0144951945E+01
   -3.0063807384E+01   -2.9980554714E+01   -2.9895119319E+01   -2.9807461010E+01
   -2.9717573750E+01   -2.9625484030E+01   -2.9531248082E+01   -2.9434948150E+01
   -2.9336688116E+01   -2.9236588788E+01   -2.9134783124E+01   -2.9031411665E+01
   -2.8926618361E+01   -2.8820546938E+01   -2.8713338085E+01   -2.8605126710E+01
   -2.8496040078E+01   -2.8386196968E+01   -2.8275706949E+01   -2.8164670156E+01
   -2.8053177740E+01   -2.7941311361E+01   -2.7829143940E+01   -2.7716740924E+01
   -2.7604160705E+01   -2.7491455715E+01   -2.7378671897E+01   -2.7265850393E+01
   -2.7153028152E+01   -2.7040238529E+01   -2.6927511078E+01   -2.6814872303E+01
   -2.6702346291E+01   -2.6589955050E+01   -2.6477717829E+01   -2.6365652073E+01
   -2.6253773584E+01   -2.6142096331E+01   -2.6030632166E+01   -2.5919391573E+01
   -2.5808383668E+01   -2.5697615164E+01   -2.5587091569E+01   -2.5476817209E+01
   -2.5366793899E+01   -2.5257022474E+01   -2.5147502589E+01   -2.5038231667E+01
   -2.4929206489E+01   -2.4820422577E+01   -2.4711874030E+01   -2.4603554617E+01
   -2.4495457024E+01   -2.4387573643E+01   -2.4279896594E+01   -2.4172417941E+01
   -2.4065129984E+01   -2.3958025279E+01   -2.3851097463E+01   -2.3744340057E+01
   -2.3637748752E+01   -2.3531319323E+01   -2.3425049203E+01   -2.3318937085E+01
   -2.3212982197E+01   -2.3107185913E+01   -2.3001549327E+01   -2.2896075466E+01
   -2.2790767024E+01   -2.2685627499E+01   -2.2580659928E+01   -2.2475867474E+01
   -2.2371251834E+01   -2.2266814963E+01   -2.2162555725E+01   -2.2058474010E+01
   -2.1954565052E+01   -2.1850825902E+01   -2.1747248561E+01   -2.1643826733E+01
   -2.1540550681E+01   -2.1437411577E+01   -2.1334399817E+01   -2.1231505909E+01
   -2.1128722959E+01   -2.1026043204E+01   -2.0923465365E+01   -2.0820985805E+01
   -2.0718611497E+01   -2.0616344868E+01   -2.0514202748E+01   -2.0412194868E+01
   -2.0310347814E+01   -2.0208679195E+01   -2.0107222840E+01   -2.0006005441E+01
   -1.9905063593E+01   -1.9804431437E+01   -1.9704146042E+01   -1.9604245168E+01
   -1.9504765106E+01   -1.9405742646E+01   -1.9307212921E+01   -1.9209207626E+01
   -1.9111760622E+01   -1.9014896211E+01   -1.8918645625E+01   -1.8823027099E+01
   -1.8728064859E+01   -1.8633775006E+01   -1.8540173209E+01   -1.8447274162E+01
   -1.8355085818E+01   -1.8263621302E+01   -1.8172883648E+01   -1.8082880986E+01
   -1.7993616025E+01   -1.7905091350E+01   -1.7817309672E+01   -1.7730269705E+01
   -1.7643973095E+01   -1.7558417125E+01   -1.7473600618E+01   -1.7389521373E+01
   -1.7306175749E+01   -1.7223561596E+01   -1.7141674129E+01   -1.7060509770E+01
   -1.6980064183E+01   -1.6900332333E+01   -1.6821310043E+01   -1.6742991604E+01
   -1.6665371979E+01   -1.6588445814E+01   -1.6512207190E+01   -1.6436650743E+01
   -1.6361770283E+01   -1.6287559813E+01   -1.6214013420E+01   -1.6141124576E+01
   -1.6068887139E+01   -1.5997294642E+01   -1.5926340440E+01   -1.5856018189E+01
   -1.5786321028E+01   -1.5717242244E+01   -1.5648775197E+01   -1.5580912869E+01
   -1.5513648451E+01   -1.5446975035E+01   -1.5380885545E+01   -1.5315373061E+01
   -1.5250430500E+01   -1.5186050744E+01   -1.5122226779E+01   -1.5058951417E+01
   -1.4996217503E+01   -1.4934017952E+01   -1.4872345511E+01   -1.4811192993E+01
   -1.4750553220E+01   -1.4690418958E+01   -1.4630782919E+01   -1.4571637743E+01
   -1.4512976747E+01   -1.4454792779E+01   -1.4397078673E+01   -1.4339828528E+01
   -1.4283035701E+01   -1.4226693568E+01   -1.4170796746E+01   -1.4115339138E+01
   -1.4060314613E+01   -1.4005718232E+01   -1.3951544432E+01   -1.3897787496E+01
   -1.3844442825E+01   -1.3791505313E+01   -1.3738969573E+01   -1.3686831257E+01
   -1.3635085613E+01   -1.3583727483E+01   -1.3532752773E+01   -1.3482157027E+01
   -1.3431935427E+01   -1.3382083968E+01   -1.3332598537E+01   -1.3283474679E+01
   -1.3234708418E+01   -1.3186295982E+01   -1.3138233279E+01   -1.3090516325E+01
   -1.3043141673E+01   -1.2996105588E+01   -1.2949404053E+01   -1.2903033924E+01
   -1.2856991710E+01   -1.2811273658E+01   -1.2765876594E+01   -1.2720797328E+01
   -1.2676032442E+01   -1.2631578636E+01   -1.2587433015E+01   -1.2543592477E+01
   -1.2500053628E+01   -1.2456813802E+01   -1.2413870067E+01   -1.2371219332E+01
   -1.2328858749E+01   -1.2286785656E+01   -1.2244997248E+01   -1.2203490514E+01
   -1.2162263017E+01   -1.2121312089E+01   -1.2080634943E+01   -1.2040228977E+01
   -1.2000091741E+01   -1.1960220679E+01   -1.1920613049E+01   -1.1881266558E+01
   -1.1842178755E+01   -1.1803347115E+01   -1.1764769149E+01   -1.1726442599E+01
   -1.1688365090E+01   -1.1650534131E+01   -1.1612947456E+01   -1.1575602824E+01
   -1.1538497937E+01   -1.1501630337E+01   -1.1464997954E+01   -1.1428598568E+01
   -1.1392429914E+01   -1.1356489695E+01   -1.1320775899E+01   -1.1285286380E+01
   -1.1250018900E+01   -1.1214971332E+01   -1.1180141727E+01   -1.1145528028E+01
   -1.1111128022E+01   -1.1076939766E+01   -1.1042961401E+01   -1.1009190969E+01
   -1.0975626312E+01   -1.0942265679E+01   -1.0909107303E+01   -1.0876149339E+01
   -1.0843389756E+01   -1.0810826924E+01   -1.0778459139E+01   -1.0746284651E+01
   -1.0714301541E+01   -1.0682508256E+01   -1.0650903158E+01   -1.0619484576E+01
   -1.0588250671E+01   -1.0557199959E+01   -1.0526330889E+01   -1.0495641868E+01
   -1.0465131155E+01   -1.0434797303E+01   -1.0404638848E+01   -1.0374654272E+01
   -1.0344841932E+01   -1.0315200399E+01   -1.0285728301E+01   -1.0256424190E+01
   -1.0227286529E+01   -1.0198313882E+01   -1.0169504973E+01   -1.0140858422E+01
   -1.0112372805E+01   -1.0084046654E+01   -1.0055878798E+01   -1.0027867920E+01
   -1.0000012703E+01   -9.9723116581E+00   -9.9447636927E+00   -9.9173675587E+00
   -9.8901220010E+00   -9.8630256489E+00   -9.8360773340E+00   -9.8092759250E+00
   -9.7826202254E+00   -9.7561089905E+00   -9.7297409582E+00   -9.7035151152E+00
   -9.6774303206E+00   -9.6514854336E+00   -9.6256791701E+00   -9.6000105490E+00
   -9.5744785099E+00   -9.5490819650E+00   -9.5238197644E+00   -9.4986907938E+00
   -9.4736941227E+00   -9.4488287139E+00   -9.4240935304E+00   -9.3994873999E+00
   -9.3750094324E+00   -9.3506586668E+00   -9.3264341143E+00   -9.3023347458E+00
   -9.2783595042E+00   -9.2545075662E+00   -9.2307779892E+00   -9.2071698304E+00
   -9.1836820518E+00   -9.1603137698E+00   -9.1370641479E+00   -9.1139322872E+00
   -9.0909172890E+00   -9.0680181176E+00   -9.0452340347E+00   -9.0225641973E+00
   -9.0000077484E+00   -8.9775638073E+00   -8.9552314226E+00   -8.9330099013E+00
   -8.9108984264E+00   -8.8888961810E+00   -8.8670022968E+00   -8.8452159256E+00
   -8.8235363835E+00   -8.8019628917E+00   -8.7804946713E+00   -8.7591308744E+00
   -8.7378707332E+00   -8.7167135796E+00   -8.6956586711E+00   -8.6747052651E+00
   -8.6538525415E+00   -8.6330997908E+00   -8.6124463679E+00   -8.5918915646E+00
   -8.5714346730E+00   -8.5510749075E+00   -8.5308115965E+00   -8.5106441242E+00
   -8.4905718156E+00   -8.4705939957E+00   -8.4507099195E+00   -8.4309189340E+00
   -8.4112204594E+00   -8.3916138521E+00   -8.3720984686E+00   -8.3526736106E+00
   -8.3333386253E+00   -8.3140929749E+00   -8.2949360459E+00   -8.2758672246E+00
   -8.2568858653E+00   -8.2379912988E+00   -8.2191830345E+00   -8.2004604873E+00
   -8.1818230723E+00   -8.1632702017E+00   -8.1448011749E+00   -8.1264155524E+00
   -8.1081127766E+00   -8.0898922898E+00   -8.0717535342E+00   -8.0536958641E+00
   -8.0357187949E+00   -8.0178218282E+00   -8.0000044320E+00   -7.9822660748E+00
   -7.9646061800E+00   -7.9470241954E+00   -7.9295196879E+00   -7.9120921506E+00
   -7.8947410764E+00   -7.8774659584E+00   -7.8602661812E+00   -7.8431413628E+00
   -7.8260910254E+00   -7.8091146856E+00   -7.7922118599E+00   -7.7753820118E+00
   -7.7586246612E+00   -7.7419394074E+00   -7.7253257896E+00   -7.7087833468E+00
   -7.6923116182E+00   -7.6759100431E+00   -7.6595782708E+00   -7.6433158709E+00
   -7.6271224042E+00   -7.6109974313E+00   -7.5949404798E+00   -7.5789510744E+00
   -7.5630288709E+00   -7.5471734504E+00   -7.5313843939E+00   -7.5156612827E+00
   -7.5000036326E+00   -7.4844110612E+00   -7.4688832095E+00   -7.4534196781E+00
   -7.4380200675E+00   -7.4226839786E+00   -7.4074109237E+00   -7.3922005934E+00
   -7.3770526208E+00   -7.3619666251E+00   -7.3469422256E+00   -7.3319790371E+00
   -7.3170765894E+00   -7.3022346137E+00   -7.2874527470E+00   -7.2727306262E+00
   -7.2580678884E+00   -7.2434641554E+00   -7.2289189994E+00   -7.2144321563E+00
   -7.2000032801E+00   -7.1856320246E+00   -7.1713180438E+00   -7.1570609731E+00
   -7.1428604107E+00   -7.1287161035E+00   -7.1146277215E+00   -7.1005949346E+00
   -7.0866174128E+00   -7.0726948115E+00   -7.0588267395E+00   -7.0450129601E+00
   -7.0312531588E+00   -7.0175470209E+00   -7.0038942318E+00   -6.9902944723E+00
   -6.9767473476E+00   -6.9632526429E+00   -6.9498100583E+00   -6.9364192939E+00
   -6.9230800497E+00   -6.9097920258E+00   -6.8965548452E+00   -6.8833682852E+00
   -6.8702320714E+00   -6.8571459180E+00   -6.8441095388E+00   -6.8311226479E+00
   -6.8181849057E+00   -6.8052960542E+00   -6.7924558543E+00   -6.7796640335E+00
   -6.7669203190E+00   -6.7542244383E+00   -6.7415760938E+00   -6.7289749809E+00
   -6.7164208999E+00   -6.7039135907E+00   -6.6914527935E+00   -6.6790382483E+00
   -6.6666696951E+00   -6.6543468013E+00   -6.6420693803E+00   -6.6298371941E+00
   -6.6176499949E+00   -6.6055075347E+00   -6.5934095658E+00   -6.5813558075E+00
   -6.5693460007E+00   -6.5573799577E+00   -6.5454574420E+00   -6.5335782175E+00
   -6.5217420478E+00   -6.5099486967E+00   -6.4981978615E+00   -6.4864893688E+00
   -6.4748230058E+00   -6.4631985474E+00   -6.4516157681E+00   -6.4400744427E+00
   -6.4285743299E+00   -6.4171151614E+00   -6.4056967834E+00   -6.3943189811E+00
   -6.3829815397E+00   -6.3716842445E+00   -6.3604268807E+00   -6.3492091965E+00
   -6.3380309801E+00   -6.3268920653E+00   -6.3157922475E+00   -6.3047313218E+00
   -6.2937090835E+00   -6.2827253278E+00   -6.2717797992E+00   -6.2608723270E+00
   -6.2500027389E+00   -6.2391708399E+00   -6.2283764346E+00   -6.2176193278E+00
   -6.2068993243E+00   -6.1962161708E+00   -6.1855697234E+00   -6.1749598099E+00
   -6.1643862442E+00   -6.1538488400E+00   -6.1433474112E+00   -6.1328817718E+00
   -6.1224516762E+00   -6.1120569940E+00   -6.1016975586E+00   -6.0913731924E+00
   -6.0810837181E+00   -6.0708289581E+00   -6.0606087350E+00   -6.0504228164E+00
   -6.0402710725E+00   -6.0301533479E+00   -6.0200694732E+00   -6.0100192794E+00
   -6.0000025972E+00   -5.9900192575E+00
  </PP_LOCAL>
 <PP_NONLOCAL>
   <PP_BETA.1
       type="real"
       size=" 602"
       columns="4"
       index="1"
       angular_momentum="0"
       cutoff_radius_index=" 332"
       cutoff_radius="    3.3100000000E+00" >
    0.0000000000E+00    2.8712367500E-02    5.7401387399E-02    8.6043715788E-02
    1.1461601621E-01    1.4309496353E-01    1.7145724799E-01    1.9967957948E-01
    2.2773869214E-01    2.5561134929E-01    2.8327434871E-01    3.1070452850E-01
    3.3787877334E-01    3.6477402131E-01    3.9136727140E-01    4.1763559154E-01
    4.4355612746E-01    4.6910611212E-01    4.9426287603E-01    5.1900385827E-01
    5.4330661842E-01    5.6714884923E-01    5.9050839022E-01    6.1336324217E-01
    6.3569158250E-01    6.5747178143E-01    6.7868241936E-01    6.9930230476E-01
    7.1931049326E-01    7.3868630754E-01    7.5740935810E-01    7.7545956493E-01
    7.9281718001E-01    8.0946281044E-01    8.2537744297E-01    8.4054246835E-01
    8.5493970751E-01    8.6855143697E-01    8.8136041678E-01    8.9334991727E-01
    9.0450374719E-01    9.1480628219E-01    9.2424249371E-01    9.3279797815E-01
    9.4045898636E-01    9.4721245329E-01    9.5304602777E-01    9.5794810236E-01
    9.6190784306E-01    9.6491521787E-01    9.6696102867E-01    9.6803693932E-01
    9.6813550193E-01    9.6725018881E-01    9.6537541975E-01    9.6250658325E-01
    9.5864007501E-01    9.5377330614E-01    9.4790474819E-01    9.4103393483E-01
    9.3316150461E-01    9.2428920626E-01    9.1441992579E-01    9.0355770819E-01
    8.9170776268E-01    8.7887649037E-01    8.6507149409E-01    8.5030158580E-01
    8.3457679732E-01    8.1790839950E-01    8.0030889601E-01    7.8179203169E-01
    7.6237279355E-01    7.4206741339E-01    7.2089336709E-01    6.9886936539E-01
    6.7601534931E-01    6.5235248108E-01    6.2790313274E-01    6.0269087237E-01
    5.7674044781E-01    5.5007776797E-01    5.2272988165E-01    4.9472495401E-01
    4.6609224043E-01    4.3686205803E-01    4.0706575474E-01    3.7673567592E-01
    3.4590512859E-01    3.1460834333E-01    2.8288043382E-01    2.5075735409E-01