<UPF version="2.0.1">
  <PP_INFO>

 Al_ONCV_PBE_FR-1.0.upf

 This pseudopotential file has been produced using the code
 ONCVPSP  (Optimized Norm-Conservinng Vanderbilt PSeudopotential)
 fully-relativistic version 2.1.1, 03/26/2014 by D. R. Hamann
 The code is available through a link at URL www.mat-simresearch.com.
 Documentation with the package provides a full description of the
 input data below.

 While it is not required under the terms of the GNU GPL, it is
 suggested that you cite D. R. Hamann, Phys. Rev. B 88, 085117 (2013)
 in any publication using these pseudopotentials.

 -----

 This pseudopotential was produced with the SG15 1.0 and/or 1.1
 parameter sets, the Schlipf-Gygi norm-conserving pseudopotential
 library. For details of the construction and testing of the
 pseudopotential please refer to:

 M. Schlipf, F. Gygi, Comp. Phys. Comm. 196, 36 (2015)
 http://dx.doi.org/10.1016/j.cpc.2015.05.011

 The above authors kindly ask that you include this reference in all
 publications associated to this pseudopotential.

 Please note this fully-relativistic version does not employ the
 above self-consistent procedure at the fully-relativistic level.

 -----

 This pseudopotential was produced by Peter Scherpelz for the purpose
 of performing GW calculations with spin-orbit-coupling. Please see
 the publication:

 P. Scherpelz, M. Govoni, I. Hamada, G. Galli; J. Chem. Theory Comput. (2016)
 http://dx.doi.org/10.1021/acs.jctc.6b00114

 If you use these pseudopotentials in your work, we also kindly ask
 that you cite the above publication.

 -----

 This work is licensed under the Creative Commons Attribution-ShareAlike 
 4.0 International License. To view a copy of this license, visit 
 http://creativecommons.org/licenses/by-sa/4.0/ or send a letter to 
 Creative Commons, PO Box 1866, Mountain View, CA 94042, USA.

 The SG15 library is Copyright 2015 The Regents of the University of
 California.  Further modifications of these files are Copyright 2016
 Peter Scherpelz.



    <PP_INPUTFILE>
# ATOM AND REFERENCE CONFIGURATION
# atsym  z    nc    nv    iexc   psfile
  Al 13.00     1     4     4      upf
#
#   n    l    f        energy (Ha)
    1    0    2.00
    2    0    2.00
    2    1    6.00
    3    0    2.00
    3    1    1.00
#
# PSEUDOPOTENTIAL AND OPTIMIZATION
# lmax
    1
#
#   l,   rc,     ep,   ncon, nbas, qcut
    0    1.30   -3.97    5    8   10.30
    1    2.41   -2.55    5    8    7.02
#
# LOCAL POTENTIAL
# lloc, lpopt,  rc(5),   dvloc0
    4    5      0.94       0.00
#
# VANDERBILT-KLEINMAN-BYLANDER PROJECTORs
# l, nproj, debl
    0    2    3.6898
    1    2    2.4541
#
# MODEL CORE CHARGE
# icmod, fcfact
    0    0.00
#
# LOG DERIVATIVE ANALYSIS
# epsh1, epsh2, depsh
   -5.00    3.00    0.02
#
# OUTPUT GRID
# rlmax, drl
    6.00    0.01
#
# TEST CONFIGURATIONS
# ncnf
    0
# nvcnf
#   n    l    f
    </PP_INPUTFILE>
  </PP_INFO>
  <!--                               -->
  <!-- END OF HUMAN READABLE SECTION -->
  <!--                               -->
    <PP_HEADER
       generated="Generated using ONCVPSP code by D. R. Hamann"
       author="anonymous"
       date="150703"
       comment=""
       element="Al"
       pseudo_type="NC"
       relativistic="full"
       is_ultrasoft="F"
       is_paw="F"
       is_coulomb="F"
       has_so="T"
       has_wfc="F"
       has_gipaw="F"
       core_correction="F"
       functional="PBE"
       z_valence="   11.00"
       total_psenergy="  -6.90661613981E+01"
       rho_cutoff="   6.01000000000E+00"
       l_max="1"
       l_local="-1"
       mesh_size="   602"
       number_of_wfc="0"
       number_of_proj="6"/>
 <PP_MESH>
   <PP_R type="real"  size=" 602" columns="8">
    0.0000    0.0100    0.0200    0.0300    0.0400    0.0500    0.0600    0.0700
    0.0800    0.0900    0.1000    0.1100    0.1200    0.1300    0.1400    0.1500
    0.1600    0.1700    0.1800    0.1900    0.2000    0.2100    0.2200    0.2300
    0.2400    0.2500    0.2600    0.2700    0.2800    0.2900    0.3000    0.3100
    0.3200    0.3300    0.3400    0.3500    0.3600    0.3700    0.3800    0.3900
    0.4000    0.4100    0.4200    0.4300    0.4400    0.4500    0.4600    0.4700
    0.4800    0.4900    0.5000    0.5100    0.5200    0.5300    0.5400    0.5500
    0.5600    0.5700    0.5800    0.5900    0.6000    0.6100    0.6200    0.6300
    0.6400    0.6500    0.6600    0.6700    0.6800    0.6900    0.7000    0.7100
    0.7200    0.7300    0.7400    0.7500    0.7600    0.7700    0.7800    0.7900
    0.8000    0.8100    0.8200    0.8300    0.8400    0.8500    0.8600    0.8700
    0.8800    0.8900    0.9000    0.9100    0.9200    0.9300    0.9400    0.9500
    0.9600    0.9700    0.9800    0.9900    1.0000    1.0100    1.0200    1.0300
    1.0400    1.0500    1.0600    1.0700    1.0800    1.0900    1.1000    1.1100
    1.1200    1.1300    1.1400    1.1500    1.1600    1.1700    1.1800    1.1900
    1.2000    1.2100    1.2200    1.2300    1.2400    1.2500    1.2600    1.2700
    1.2800    1.2900    1.3000    1.3100    1.3200    1.3300    1.3400    1.3500
    1.3600    1.3700    1.3800    1.3900    1.4000    1.4100    1.4200    1.4300
    1.4400    1.4500    1.4600    1.4700    1.4800    1.4900    1.5000    1.5100
    1.5200    1.5300    1.5400    1.5500    1.5600    1.5700    1.5800    1.5900
    1.6000    1.6100    1.6200    1.6300    1.6400    1.6500    1.6600    1.6700
    1.6800    1.6900    1.7000    1.7100    1.7200    1.7300    1.7400    1.7500
    1.7600    1.7700    1.7800    1.7900    1.8000    1.8100    1.8200    1.8300
    1.8400    1.8500    1.8600    1.8700    1.8800    1.8900    1.9000    1.9100
    1.9200    1.9300    1.9400    1.9500    1.9600    1.9700    1.9800    1.9900
    2.0000    2.0100    2.0200    2.0300    2.0400    2.0500    2.0600    2.0700
    2.0800    2.0900    2.1000    2.1100    2.1200    2.1300    2.1400    2.1500
    2.1600    2.1700    2.1800    2.1900    2.2000    2.2100    2.2200    2.2300
    2.2400    2.2500    2.2600    2.2700    2.2800    2.2900    2.3000    2.3100
    2.3200    2.3300    2.3400    2.3500    2.3600    2.3700    2.3800    2.3900
    2.4000    2.4100    2.4200    2.4300    2.4400    2.4500    2.4600    2.4700
    2.4800    2.4900    2.5000    2.5100    2.5200    2.5300    2.5400    2.5500
    2.5600    2.5700    2.5800    2.5900    2.6000    2.6100    2.6200    2.6300
    2.6400    2.6500    2.6600    2.6700    2.6800    2.6900    2.7000    2.7100
    2.7200    2.7300    2.7400    2.7500    2.7600    2.7700    2.7800    2.7900
    2.8000    2.8100    2.8200    2.8300    2.8400    2.8500    2.8600    2.8700
    2.8800    2.8900    2.9000    2.9100    2.9200    2.9300    2.9400    2.9500
    2.9600    2.9700    2.9800    2.9900    3.0000    3.0100    3.0200    3.0300
    3.0400    3.0500    3.0600    3.0700    3.0800    3.0900    3.1000    3.1100
    3.1200    3.1300    3.1400    3.1500    3.1600    3.1700    3.1800    3.1900
    3.2000    3.2100    3.2200    3.2300    3.2400    3.2500    3.2600    3.2700
    3.2800    3.2900    3.3000    3.3100    3.3200    3.3300    3.3400    3.3500
    3.3600    3.3700    3.3800    3.3900    3.4000    3.4100    3.4200    3.4300
    3.4400    3.4500    3.4600    3.4700    3.4800    3.4900    3.5000    3.5100
    3.5200    3.5300    3.5400    3.5500    3.5600    3.5700    3.5800    3.5900
    3.6000    3.6100    3.6200    3.6300    3.6400    3.6500    3.6600    3.6700
    3.6800    3.6900    3.7000    3.7100    3.7200    3.7300    3.7400    3.7500
    3.7600    3.7700    3.7800    3.7900    3.8000    3.8100    3.8200    3.8300
    3.8400    3.8500    3.8600    3.8700    3.8800    3.8900    3.9000    3.9100
    3.9200    3.9300    3.9400    3.9500    3.9600    3.9700    3.9800    3.9900
    4.0000    4.0100    4.0200    4.0300    4.0400    4.0500    4.0600    4.0700
    4.0800    4.0900    4.1000    4.1100    4.1200    4.1300    4.1400    4.1500
    4.1600    4.1700    4.1800    4.1900    4.2000    4.2100    4.2200    4.2300
    4.2400    4.2500    4.2600    4.2700    4.2800    4.2900    4.3000    4.3100
    4.3200    4.3300    4.3400    4.3500    4.3600    4.3700    4.3800    4.3900
    4.4000    4.4100    4.4200    4.4300    4.4400    4.4500    4.4600    4.4700
    4.4800    4.4900    4.5000    4.5100    4.5200    4.5300    4.5400    4.5500
    4.5600    4.5700    4.5800    4.5900    4.6000    4.6100    4.6200    4.6300
    4.6400    4.6500    4.6600    4.6700    4.6800    4.6900    4.7000    4.7100
    4.7200    4.7300    4.7400    4.7500    4.7600    4.7700    4.7800    4.7900
    4.8000    4.8100    4.8200    4.8300    4.8400    4.8500    4.8600    4.8700
    4.8800    4.8900    4.9000    4.9100    4.9200    4.9300    4.9400    4.9500
    4.9600    4.9700    4.9800    4.9900    5.0000    5.0100    5.0200    5.0300
    5.0400    5.0500    5.0600    5.0700    5.0800    5.0900    5.1000    5.1100
    5.1200    5.1300    5.1400    5.1500    5.1600    5.1700    5.1800    5.1900
    5.2000    5.2100    5.2200    5.2300    5.2400    5.2500    5.2600    5.2700
    5.2800    5.2900    5.3000    5.3100    5.3200    5.3300    5.3400    5.3500
    5.3600    5.3700    5.3800    5.3900    5.4000    5.4100    5.4200    5.4300
    5.4400    5.4500    5.4600    5.4700    5.4800    5.4900    5.5000    5.5100
    5.5200    5.5300    5.5400    5.5500    5.5600    5.5700    5.5800    5.5900
    5.6000    5.6100    5.6200    5.6300    5.6400    5.6500    5.6600    5.6700
    5.6800    5.6900    5.7000    5.7100    5.7200    5.7300    5.7400    5.7500
    5.7600    5.7700    5.7800    5.7900    5.8000    5.8100    5.8200    5.8300
    5.8400    5.8500    5.8600    5.8700    5.8800    5.8900    5.9000    5.9100
    5.9200    5.9300    5.9400    5.9500    5.9600    5.9700    5.9800    5.9900
    6.0000    6.0100
   </PP_R>
   <PP_RAB type="real"  size=" 602" columns="8">
    0.0100    0.0100    0.0100    0.0100    0.0100    0.0100    0.0100    0.0100
    0.0100    0.0100    0.0100    0.0100    0.0100    0.0100    0.0100    0.0100
    0.0100    0.0100    0.0100    0.0100    0.0100    0.0100    0.0100    0.0100
    0.0100    0.0100    0.0100    0.0100    0.0100    0.0100    0.0100    0.0100
    0.0100    0.0100    0.0100    0.0100    0.0100    0.0100    0.0100    0.0100
    0.0100    0.0100    0.0100    0.0100    0.0100    0.0100    0.0100    0.0100
    0.0100    0.0100    0.0100    0.0100    0.0100    0.0100    0.0100    0.0100
    0.0100    0.0100    0.0100    0.0100    0.0100    0.0100    0.0100    0.0100
    0.0100    0.0100    0.0100    0.0100    0.0100    0.0100    0.0100    0.0100
    0.0100    0.0100    0.0100    0.0100    0.0100    0.0100    0.0100    0.0100
    0.0100    0.0100    0.0100    0.0100    0.0100    0.0100    0.0100    0.0100
    0.0100    0.0100    0.0100    0.0100    0.0100    0.0100    0.0100    0.0100
    0.0100    0.0100    0.0100    0.0100    0.0100    0.0100    0.0100    0.0100
    0.0100    0.0100    0.0100    0.0100    0.0100    0.0100    0.0100    0.0100
    0.0100    0.0100    0.0100    0.0100    0.0100    0.0100    0.0100    0.0100
    0.0100    0.0100    0.0100    0.0100    0.0100    0.0100    0.0100    0.0100
    0.0100    0.0100    0.0100    0.0100    0.0100    0.0100    0.0100    0.0100
    0.0100    0.0100    0.0100    0.0100    0.0100    0.0100    0.0100    0.0100
    0.0100    0.0100    0.0100    0.0100    0.0100    0.0100    0.0100    0.0100
    0.0100    0.0100    0.0100    0.0100    0.0100    0.0100    0.0100    0.0100
    0.0100    0.0100    0.0100    0.0100    0.0100    0.0100    0.0100    0.0100
    0.0100    0.0100    0.0100    0.0100    0.0100    0.0100    0.0100    0.0100
    0.0100    0.0100    0.0100    0.0100    0.0100    0.0100    0.0100    0.0100
    0.0100    0.0100    0.0100    0.0100    0.0100    0.0100    0.0100    0.0100
    0.0100    0.0100    0.0100    0.0100    0.0100    0.0100    0.0100    0.0100
    0.0100    0.0100    0.0100    0.0100    0.0100    0.0100    0.0100    0.0100
    0.0100    0.0100    0.0100    0.0100    0.0100    0.0100    0.0100    0.0100
    0.0100    0.0100    0.0100    0.0100    0.0100    0.0100    0.0100    0.0100
    0.0100    0.0100    0.0100    0.0100    0.0100    0.0100    0.0100    0.0100
    0.0100    0.0100    0.0100    0.0100    0.0100    0.0100    0.0100    0.0100
    0.0100    0.0100    0.0100    0.0100    0.0100    0.0100    0.0100    0.0100
    0.0100    0.0100    0.0100    0.0100    0.0100    0.0100    0.0100    0.0100
    0.0100    0.0100    0.0100    0.0100    0.0100    0.0100    0.0100    0.0100
    0.0100    0.0100    0.0100    0.0100    0.0100    0.0100    0.0100    0.0100
    0.0100    0.0100    0.0100    0.0100    0.0100    0.0100    0.0100    0.0100
    0.0100    0.0100    0.0100    0.0100    0.0100    0.0100    0.0100    0.0100
    0.0100    0.0100    0.0100    0.0100    0.0100    0.0100    0.0100    0.0100
    0.0100    0.0100    0.0100    0.0100    0.0100    0.0100    0.0100    0.0100
    0.0100    0.0100    0.0100    0.0100    0.0100    0.0100    0.0100    0.0100
    0.0100    0.0100    0.0100    0.0100    0.0100    0.0100    0.0100    0.0100
    0.0100    0.0100    0.0100    0.0100    0.0100    0.0100    0.0100    0.0100
    0.0100    0.0100    0.0100    0.0100    0.0100    0.0100    0.0100    0.0100
    0.0100    0.0100    0.0100    0.0100    0.0100    0.0100    0.0100    0.0100
    0.0100    0.0100    0.0100    0.0100    0.0100    0.0100    0.0100    0.0100
    0.0100    0.0100    0.0100    0.0100    0.0100    0.0100    0.0100    0.0100
    0.0100    0.0100    0.0100    0.0100    0.0100    0.0100    0.0100    0.0100
    0.0100    0.0100    0.0100    0.0100    0.0100    0.0100    0.0100    0.0100
    0.0100    0.0100    0.0100    0.0100    0.0100    0.0100    0.0100    0.0100
    0.0100    0.0100    0.0100    0.0100    0.0100    0.0100    0.0100    0.0100
    0.0100    0.0100    0.0100    0.0100    0.0100    0.0100    0.0100    0.0100
    0.0100    0.0100    0.0100    0.0100    0.0100    0.0100    0.0100    0.0100
    0.0100    0.0100    0.0100    0.0100    0.0100    0.0100    0.0100    0.0100
    0.0100    0.0100    0.0100    0.0100    0.0100    0.0100    0.0100    0.0100
    0.0100    0.0100    0.0100    0.0100    0.0100    0.0100    0.0100    0.0100
    0.0100    0.0100    0.0100    0.0100    0.0100    0.0100    0.0100    0.0100
    0.0100    0.0100    0.0100    0.0100    0.0100    0.0100    0.0100    0.0100
    0.0100    0.0100    0.0100    0.0100    0.0100    0.0100    0.0100    0.0100
    0.0100    0.0100    0.0100    0.0100    0.0100    0.0100    0.0100    0.0100
    0.0100    0.0100    0.0100    0.0100    0.0100    0.0100    0.0100    0.0100
    0.0100    0.0100    0.0100    0.0100    0.0100    0.0100    0.0100    0.0100
    0.0100    0.0100    0.0100    0.0100    0.0100    0.0100    0.0100    0.0100
    0.0100    0.0100    0.0100    0.0100    0.0100    0.0100    0.0100    0.0100
    0.0100    0.0100    0.0100    0.0100    0.0100    0.0100    0.0100    0.0100
    0.0100    0.0100    0.0100    0.0100    0.0100    0.0100    0.0100    0.0100
    0.0100    0.0100    0.0100    0.0100    0.0100    0.0100    0.0100    0.0100
    0.0100    0.0100    0.0100    0.0100    0.0100    0.0100    0.0100    0.0100
    0.0100    0.0100    0.0100    0.0100    0.0100    0.0100    0.0100    0.0100
    0.0100    0.0100    0.0100    0.0100    0.0100    0.0100    0.0100    0.0100
    0.0100    0.0100    0.0100    0.0100    0.0100    0.0100    0.0100    0.0100
    0.0100    0.0100    0.0100    0.0100    0.0100    0.0100    0.0100    0.0100
    0.0100    0.0100    0.0100    0.0100    0.0100    0.0100    0.0100    0.0100
    0.0100    0.0100    0.0100    0.0100    0.0100    0.0100    0.0100    0.0100
    0.0100    0.0100    0.0100    0.0100    0.0100    0.0100    0.0100    0.0100
    0.0100    0.0100    0.0100    0.0100    0.0100    0.0100    0.0100    0.0100
    0.0100    0.0100    0.0100    0.0100    0.0100    0.0100    0.0100    0.0100
    0.0100    0.0100
   </PP_RAB>
 </PP_MESH>
  <PP_LOCAL type="real"  size=" 602" columns="4">
   -4.5793490090E+01   -4.5788769907E+01   -4.5774591742E+01   -4.5750973224E+01
   -4.5717931981E+01   -4.5675492677E+01   -4.5623686996E+01   -4.5562553624E+01
   -4.5492138221E+01   -4.5412493397E+01   -4.5323678672E+01   -4.5225760440E+01
   -4.5118811927E+01   -4.5002913135E+01   -4.4878150792E+01   -4.4744618291E+01
   -4.4602415620E+01   -4.4451649294E+01   -4.4292432274E+01   -4.4124883882E+01
   -4.3949129714E+01   -4.3765301543E+01   -4.3573537215E+01   -4.3373980542E+01
   -4.3166781190E+01   -4.2952094563E+01   -4.2730081670E+01   -4.2500909013E+01
   -4.2264748441E+01   -4.2021777019E+01   -4.1772176893E+01   -4.1516135145E+01
   -4.1253843647E+01   -4.0985498927E+01   -4.0711302010E+01   -4.0431458279E+01
   -4.0146177327E+01   -3.9855672814E+01   -3.9560162309E+01   -3.9259867154E+01
   -3.8955012318E+01   -3.8645826244E+01   -3.8332540701E+01   -3.8015390635E+01
   -3.7694614017E+01   -3.7370451680E+01   -3.7043147159E+01   -3.6712946514E+01
   -3.6380098150E+01   -3.6044852636E+01   -3.5707462480E+01   -3.5368181909E+01
   -3.5027266648E+01   -3.4684973652E+01   -3.4341560815E+01   -3.3997286704E+01
   -3.3652410207E+01   -3.3307190205E+01   -3.2961885214E+01   -3.2616752964E+01
   -3.2272050061E+01   -3.1928031444E+01   -3.1584950056E+01   -3.1243056316E+01
   -3.0902597595E+01   -3.0563817839E+01   -3.0226956991E+01   -2.9892250397E+01
   -2.9559928421E+01   -2.9230215928E+01   -2.8903331629E+01   -2.8579487554E+01
   -2.8258888632E+01   -2.7941732112E+01   -2.7628207035E+01   -2.7318493825E+01
   -2.7012763432E+01   -2.6711177111E+01   -2.6413885835E+01   -2.6121029774E+01
   -2.5832737774E+01   -2.5549126846E+01   -2.5270301645E+01   -2.4996353951E+01
   -2.4727362146E+01   -2.4463390677E+01   -2.4204489519E+01   -2.3950693623E+01
   -2.3702022347E+01   -2.3458478880E+01   -2.3220049645E+01   -2.2986703685E+01
   -2.2758392025E+01   -2.2535046989E+01   -2.2316581590E+01   -2.2102890364E+01
   -2.1893858585E+01   -2.1689372583E+01   -2.1489319378E+01   -2.1293586069E+01
   -2.1102059157E+01   -2.0914623933E+01   -2.0731164035E+01   -2.0551560717E+01
   -2.0375692434E+01   -2.0203434639E+01   -2.0034659506E+01   -1.9869235965E+01
   -1.9707029357E+01   -1.9547901497E+01   -1.9391711393E+01   -1.9238315547E+01
   -1.9087568430E+01   -1.8939322939E+01   -1.8793431903E+01   -1.8649748699E+01
   -1.8508127833E+01   -1.8368427515E+01   -1.8230509975E+01   -1.8094241617E+01
   -1.7959496400E+01   -1.7826156919E+01   -1.7694113197E+01   -1.7563264656E+01
   -1.7433525266E+01   -1.7304818411E+01   -1.7177078083E+01   -1.7050258027E+01
   -1.6924321944E+01   -1.6799246012E+01   -1.6675029179E+01   -1.6551679467E+01
   -1.6429221195E+01   -1.6307700717E+01   -1.6187171394E+01   -1.6067708641E+01
   -1.5949403418E+01   -1.5832352180E+01   -1.5716677557E+01   -1.5602504243E+01
   -1.5489970219E+01   -1.5379222314E+01   -1.5270409544E+01   -1.5163686334E+01
   -1.5059203450E+01   -1.4957110657E+01   -1.4857540864E+01   -1.4760630605E+01
   -1.4666473403E+01   -1.4575168523E+01   -1.4486759033E+01   -1.4401269999E+01
   -1.4318683132E+01   -1.4238913470E+01   -1.4161864418E+01   -1.4087315901E+01
   -1.4015076900E+01   -1.3944797998E+01   -1.3876175228E+01   -1.3808782043E+01
   -1.3742222055E+01   -1.3676058461E+01   -1.3609875976E+01   -1.3543299520E+01
   -1.3475987111E+01   -1.3407693290E+01   -1.3338219430E+01   -1.3267489094E+01
   -1.3195468987E+01   -1.3122246442E+01   -1.3047927845E+01   -1.2972716742E+01
   -1.2896807322E+01   -1.2820449558E+01   -1.2743871962E+01   -1.2667305464E+01
   -1.2590972302E+01   -1.2515042730E+01   -1.2439707840E+01   -1.2365064911E+01
   -1.2291261626E+01   -1.2218334965E+01   -1.2146378655E+01   -1.2075398132E+01
   -1.2005431420E+01   -1.1936472488E+01   -1.1868519225E+01   -1.1801557998E+01
   -1.1735565554E+01   -1.1670521675E+01   -1.1606396264E+01   -1.1543163405E+01
   -1.1480794176E+01   -1.1419259556E+01   -1.1358533543E+01   -1.1298588798E+01
   -1.1239400316E+01   -1.1180945383E+01   -1.1123199330E+01   -1.1066143917E+01
   -1.1009756851E+01   -1.0954021469E+01   -1.0898919930E+01   -1.0844435395E+01
   -1.0790554190E+01   -1.0737259699E+01   -1.0684540490E+01   -1.0632382768E+01
   -1.0580774484E+01   -1.0529704825E+01   -1.0479161491E+01   -1.0429135288E+01
   -1.0379615467E+01   -1.0330592449E+01   -1.0282057414E+01   -1.0234000438E+01
   -1.0186413754E+01   -1.0139288578E+01   -1.0092616664E+01   -1.0046390566E+01
   -1.0000601971E+01   -9.9552439256E+00   -9.9103091319E+00   -9.8657901479E+00
   -9.8216806458E+00   -9.7779735670E+00   -9.7346624906E+00   -9.6917413919E+00
   -9.6492035595E+00   -9.6070434883E+00   -9.5652553664E+00   -9.5238330919E+00
   -9.4827717419E+00   -9.4420657482E+00   -9.4017098006E+00   -9.3616993063E+00
   -9.3220290308E+00   -9.2826943926E+00   -9.2436911132E+00   -9.2050143229E+00
   -9.1666600657E+00   -9.1286243483E+00   -9.0909027309E+00   -9.0534916497E+00
   -9.0163873120E+00   -8.9795856656E+00   -8.9430833079E+00   -8.9068765824E+00
   -8.8709616875E+00   -8.8353353587E+00   -8.7999941013E+00   -8.7649343112E+00
   -8.7301528655E+00   -8.6956464257E+00   -8.6614115419E+00   -8.6274452524E+00
   -8.5937443849E+00   -8.5603056336E+00   -8.5271261802E+00   -8.4942030147E+00
   -8.4615329420E+00   -8.4291132925E+00   -8.3969412011E+00   -8.3650136202E+00
   -8.3333279685E+00   -8.3018815329E+00   -8.2706714279E+00   -8.2396951231E+00
   -8.2089500629E+00   -8.1784335253E+00   -8.1481430086E+00   -8.1180761142E+00
   -8.0882302860E+00   -8.0586030312E+00   -8.0291921059E+00   -7.9999951219E+00
   -7.9710095795E+00   -7.9422333849E+00   -7.9136642811E+00   -7.8852998639E+00
   -7.8571380696E+00   -7.8291767833E+00   -7.8014137665E+00   -7.7738469021E+00
   -7.7464742358E+00   -7.7192936997E+00   -7.6923031108E+00   -7.6655006681E+00
   -7.6388844155E+00   -7.6124522808E+00   -7.5862024255E+00   -7.5601330432E+00
   -7.5342422322E+00   -7.5085280505E+00   -7.4829888512E+00   -7.4576228561E+00
   -7.4324281705E+00   -7.4074031413E+00   -7.3825461229E+00   -7.3578553923E+00
   -7.3333291626E+00   -7.3089659491E+00   -7.2847641355E+00   -7.2607220134E+00
   -7.2368380339E+00   -7.2131107236E+00   -7.1895385419E+00   -7.1661198059E+00
   -7.1428531760E+00   -7.1197371909E+00   -7.0967703385E+00   -7.0739511029E+00
   -7.0512781914E+00   -7.0287502033E+00   -7.0063656544E+00   -6.9841231977E+00
   -6.9620215635E+00   -6.9400594164E+00   -6.9182353072E+00   -6.8965480336E+00
   -6.8749963521E+00   -6.8535789896E+00   -6.8322945380E+00   -6.8111419162E+00
   -6.7901199113E+00   -6.7692272892E+00   -6.7484627482E+00   -6.7278252462E+00
   -6.7073136259E+00   -6.6869266966E+00   -6.6666632464E+00   -6.6465222723E+00
   -6.6265026710E+00   -6.6066032991E+00   -6.5868230163E+00   -6.5671608622E+00
   -6.5476157847E+00   -6.5281866920E+00   -6.5088724977E+00   -6.4896722876E+00
   -6.4705850586E+00   -6.4516097739E+00   -6.4327453850E+00   -6.4139910268E+00
   -6.3953457432E+00   -6.3768085559E+00   -6.3583784389E+00   -6.3400545795E+00
   -6.3218360662E+00   -6.3037219826E+00   -6.2857113113E+00   -6.2678032946E+00
   -6.2499970632E+00   -6.2322917481E+00   -6.2146863819E+00   -6.1971802096E+00
   -6.1797724202E+00   -6.1624621852E+00   -6.1452486055E+00   -6.1281309009E+00
   -6.1111083263E+00   -6.0941800916E+00   -6.0773453698E+00   -6.0606033440E+00
   -6.0439533361E+00   -6.0273945928E+00   -6.0109263607E+00   -5.9945477823E+00
   -5.9782582410E+00   -5.9620570203E+00   -5.9459434022E+00   -5.9299166049E+00
   -5.9139759491E+00   -5.8981207940E+00   -5.8823504550E+00   -5.8666642317E+00
   -5.8510613720E+00   -5.8355413104E+00   -5.8201033941E+00   -5.8047469702E+00
   -5.7894713198E+00   -5.7742758393E+00   -5.7591599425E+00   -5.7441230071E+00
   -5.7291644008E+00   -5.7142834256E+00   -5.6994795760E+00   -5.6847522585E+00
   -5.6701008797E+00   -5.6555247983E+00   -5.6410234321E+00   -5.6265962653E+00
   -5.6122427321E+00   -5.5979622668E+00   -5.5837542259E+00   -5.5696181262E+00
   -5.5555534450E+00   -5.5415596427E+00   -5.5276361697E+00   -5.5137824185E+00
   -5.4999979557E+00   -5.4862822670E+00   -5.4726348382E+00   -5.4590551242E+00
   -5.4455425893E+00   -5.4320968031E+00   -5.4187172754E+00   -5.4054035158E+00
   -5.3921549893E+00   -5.3789712173E+00   -5.3658517765E+00   -5.3527961996E+00
   -5.3398040191E+00   -5.3268747144E+00   -5.3140078504E+00   -5.3012030152E+00
   -5.2884597632E+00   -5.2757776487E+00   -5.2631561700E+00   -5.2505949223E+00
   -5.2380935092E+00   -5.2256515060E+00   -5.2132684878E+00   -5.2009439754E+00
   -5.1886775822E+00   -5.1764689317E+00   -5.1643176187E+00   -5.1522232383E+00
   -5.1401853377E+00   -5.1282035368E+00   -5.1162774827E+00   -5.1044067893E+00
   -5.0925910702E+00   -5.0808299028E+00   -5.0691229028E+00   -5.0574697444E+00
   -5.0458700594E+00   -5.0343234797E+00   -5.0228296159E+00   -5.0113880695E+00
   -4.9999985451E+00   -4.9886606916E+00   -4.9773741579E+00   -4.9661385918E+00
   -4.9549535712E+00   -4.9438188336E+00   -4.9327340442E+00   -4.9216988683E+00
   -4.9107129713E+00   -4.8997759672E+00   -4.8888875609E+00   -4.8780474555E+00
   -4.8672553319E+00   -4.8565108710E+00   -4.8458137305E+00   -4.8351635704E+00
   -4.8245601350E+00   -4.8140031201E+00   -4.8034922214E+00   -4.7930271346E+00
   -4.7826074949E+00   -4.7722330621E+00   -4.7619035548E+00   -4.7516186830E+00
   -4.7413781566E+00   -4.7311816602E+00   -4.7210288905E+00   -4.7109196143E+00
   -4.7008535550E+00   -4.6908304359E+00   -4.6808499806E+00   -4.6709118599E+00
   -4.6610158457E+00   -4.6511616885E+00   -4.6413491245E+00   -4.6315778900E+00
   -4.6218477116E+00   -4.6121582822E+00   -4.6025094053E+00   -4.5929008294E+00
   -4.5833323031E+00   -4.5738035752E+00   -4.5643143659E+00   -4.5548644214E+00
   -4.5454535375E+00   -4.5360814748E+00   -4.5267479934E+00   -4.5174528538E+00
   -4.5081957751E+00   -4.4989765448E+00   -4.4897949554E+00   -4.4806507786E+00
   -4.4715437857E+00   -4.4624737484E+00   -4.4534403891E+00   -4.4444435252E+00
   -4.4354829504E+00   -4.4265584468E+00   -4.4176697966E+00   -4.4088167818E+00
   -4.3999991322E+00   -4.3912166850E+00   -4.3824692386E+00   -4.3737565855E+00
   -4.3650785180E+00   -4.3564348282E+00   -4.3478252567E+00   -4.3392496506E+00
   -4.3307078175E+00   -4.3221995592E+00   -4.3137246778E+00   -4.3052829753E+00
   -4.2968742062E+00   -4.2884982186E+00   -4.2801548326E+00   -4.2718438593E+00
   -4.2635651100E+00   -4.2553183959E+00   -4.2471034890E+00   -4.2389202295E+00
   -4.2307684537E+00   -4.2226479815E+00   -4.2145586329E+00   -4.2065002279E+00
   -4.1984725593E+00   -4.1904754514E+00   -4.1825087595E+00   -4.1745723120E+00
   -4.1666659372E+00   -4.1587894636E+00   -4.1509427079E+00   -4.1431254708E+00
   -4.1353376296E+00   -4.1275790207E+00   -4.1198494804E+00   -4.1121488451E+00
   -4.1044769513E+00   -4.0968335911E+00   -4.0892186444E+00   -4.0816319622E+00
   -4.0740733886E+00   -4.0665427676E+00   -4.0590399431E+00   -4.0515647376E+00
   -4.0441169908E+00   -4.0366965829E+00   -4.0293033650E+00   -4.0219371885E+00
   -4.0145979047E+00   -4.0072853647E+00   -3.9999993752E+00   -3.9927398342E+00
   -3.9855066042E+00   -3.9782995431E+00   -3.9711185094E+00   -3.9639633610E+00
   -3.9568339404E+00   -3.9497300916E+00   -3.9426517115E+00   -3.9355986648E+00
   -3.9285708165E+00   -3.9215680312E+00   -3.9145901739E+00   -3.9076370783E+00
   -3.9007086283E+00   -3.8938047109E+00   -3.8869251973E+00   -3.8800699586E+00
   -3.8732388658E+00   -3.8664317901E+00   -3.8596485612E+00   -3.8528890929E+00
   -3.8461532663E+00   -3.8394409586E+00   -3.8327520469E+00   -3.8260864083E+00
   -3.8194439160E+00   -3.8128244110E+00   -3.8062278165E+00   -3.7996540153E+00
   -3.7931028902E+00   -3.7865743242E+00   -3.7800682000E+00   -3.7735843929E+00
   -3.7671227583E+00   -3.7606832204E+00   -3.7542656674E+00   -3.7478699876E+00
   -3.7414960693E+00   -3.7351438009E+00   -3.7288130629E+00   -3.7225037174E+00
   -3.7162156926E+00   -3.7099488820E+00   -3.7037031792E+00   -3.6974784776E+00
   -3.6912746708E+00   -3.6850916479E+00   -3.6789292701E+00   -3.6727874729E+00
   -3.6666661547E+00   -3.6605652141E+00
  </PP_LOCAL>
 <PP_NONLOCAL>
   <PP_BETA.1
       type="real"
       size=" 602"
       columns="4"
       index="1"
       angular_momentum="0"
       cutoff_radius_index=" 246"
       cutoff_radius="    2.4500000000E+00" >
    0.0000000000E+00   -7.2607191607E-03   -1.4005626775E-02   -1.9726354812E-02
   -2.3929312284E-02   -2.6142800478E-02   -2.5923804904E-02   -2.2864363975E-02
   -1.6597420801E-02   -6.8020725254E-03    6.7918593305E-03    2.4400003535E-02
    4.6180413478E-02    7.2231383584E-02    1.0259013788E-01    1.3723240604E-01
    1.7607289099E-01    2.1896661605E-01    2.6571112830E-01    3.1604952138E-01
    3.6967422399E-01    4.2623150439E-01    4.8532660216E-01    5.4652942190E-01
    6.0938068009E-01    6.7339845798E-01    7.3808494980E-01    8.0293347359E-01
    8.6743544489E-01    9.3108735138E-01    9.9339755917E-01    1.0538928579E+00
    1.1121246041E+00    1.1676745585E+00    1.2201599829E+00    1.2692382743E+00
    1.3146108866E+00    1.3560265587E+00    1.3932836290E+00    1.4262317764E+00
    1.4547728183E+00    1.4788606645E+00    1.4985005440E+00    1.5137474269E+00
    1.5247037010E+00    1.5315161553E+00    1.5343723277E+00    1.5334962977E+00
    1.5291440126E+00    1.5215981158E+00    1.5111625628E+00    1.4981571400E+00
    1.4829114935E+00    1.4657593588E+00    1.4470335284E+00    1.4270590479E+00
    1.4061496069E+00    1.3846010614E+00    1.3626886068E+00    1.3406609756E+00
    1.3187394642E+00    1.2971122860E+00    1.2759350411E+00    1.2553280184E+00
    1.2353751044E+00    1.2161249781E+00    1.1975908816E+00    1.1797516014E+00
    1.1625542370E+00    1.1459164399E+00    1.1297290227E+00    1.1138596682E+00
    1.0981569631E+00    1.0824544334E+00    1.0665749424E+00    1.0503350928E+00