<UPF version="2.0.1">
  <PP_INFO>

 Ca_ONCV_PBE_FR-1.0.upf

 This pseudopotential file has been produced using the code
 ONCVPSP  (Optimized Norm-Conservinng Vanderbilt PSeudopotential)
 fully-relativistic version 2.1.1, 03/26/2014 by D. R. Hamann
 The code is available through a link at URL www.mat-simresearch.com.
 Documentation with the package provides a full description of the
 input data below.

 While it is not required under the terms of the GNU GPL, it is
 suggested that you cite D. R. Hamann, Phys. Rev. B 88, 085117 (2013)
 in any publication using these pseudopotentials.

 -----

 This pseudopotential was produced with the SG15 1.0 and/or 1.1
 parameter sets, the Schlipf-Gygi norm-conserving pseudopotential
 library. For details of the construction and testing of the
 pseudopotential please refer to:

 M. Schlipf, F. Gygi, Comp. Phys. Comm. 196, 36 (2015)
 http://dx.doi.org/10.1016/j.cpc.2015.05.011

 The above authors kindly ask that you include this reference in all
 publications associated to this pseudopotential.

 Please note this fully-relativistic version does not employ the
 above self-consistent procedure at the fully-relativistic level.

 -----

 This pseudopotential was produced by Peter Scherpelz for the purpose
 of performing GW calculations with spin-orbit-coupling. Please see
 the publication:

 P. Scherpelz, M. Govoni, I. Hamada, G. Galli; J. Chem. Theory Comput. (2016)
 http://dx.doi.org/10.1021/acs.jctc.6b00114

 If you use these pseudopotentials in your work, we also kindly ask
 that you cite the above publication.

 -----

 This work is licensed under the Creative Commons Attribution-ShareAlike 
 4.0 International License. To view a copy of this license, visit 
 http://creativecommons.org/licenses/by-sa/4.0/ or send a letter to 
 Creative Commons, PO Box 1866, Mountain View, CA 94042, USA.

 The SG15 library is Copyright 2015 The Regents of the University of
 California.  Further modifications of these files are Copyright 2016
 Peter Scherpelz.

    <PP_INPUTFILE>
# ATOM AND REFERENCE CONFIGURATION
# atsym  z    nc    nv    iexc   psfile
  Ca 20.00     3     3     4      upf
#
#   n    l    f        energy (Ha)
    1    0    2.00
    2    0    2.00
    2    1    6.00
    3    0    2.00
    3    1    6.00
    4    0    2.00
#
# PSEUDOPOTENTIAL AND OPTIMIZATION
# lmax
    2
#
#   l,   rc,     ep,   ncon, nbas, qcut
    0    2.24   -1.73    5    8    6.36
    1    2.47   -1.02    5    8    6.22
    2    2.41   -0.01    5    8    7.67
#
# LOCAL POTENTIAL
# lloc, lpopt,  rc(5),   dvloc0
    4    5      2.11       0.00
#
# VANDERBILT-KLEINMAN-BYLANDER PROJECTORs
# l, nproj, debl
    0    2    1.5920
    1    2    1.2453
    2    2    1.2645
#
# MODEL CORE CHARGE
# icmod, fcfact
    0    0.00
#
# LOG DERIVATIVE ANALYSIS
# epsh1, epsh2, depsh
   -5.00    3.00    0.02
#
# OUTPUT GRID
# rlmax, drl
    6.00    0.01
#
# TEST CONFIGURATIONS
# ncnf
    0
# nvcnf
#   n    l    f
    </PP_INPUTFILE>
  </PP_INFO>
  <!--                               -->
  <!-- END OF HUMAN READABLE SECTION -->
  <!--                               -->
    <PP_HEADER
       generated="Generated using ONCVPSP code by D. R. Hamann"
       author="anonymous"
       date="150703"
       comment=""
       element="Ca"
       pseudo_type="NC"
       relativistic="full"
       is_ultrasoft="F"
       is_paw="F"
       is_coulomb="F"
       has_so="T"
       has_wfc="F"
       has_gipaw="F"
       core_correction="F"
       functional="PBE"
       z_valence="   10.00"
       total_psenergy="  -3.68022054442E+01"
       rho_cutoff="   6.01000000000E+00"
       l_max="2"
       l_local="-1"
       mesh_size="   602"
       number_of_wfc="0"
       number_of_proj="10"/>
 <PP_MESH>
   <PP_R type="real"  size=" 602" columns="8">
    0.0000    0.0100    0.0200    0.0300    0.0400    0.0500    0.0600    0.0700
    0.0800    0.0900    0.1000    0.1100    0.1200    0.1300    0.1400    0.1500
    0.1600    0.1700    0.1800    0.1900    0.2000    0.2100    0.2200    0.2300
    0.2400    0.2500    0.2600    0.2700    0.2800    0.2900    0.3000    0.3100
    0.3200    0.3300    0.3400    0.3500    0.3600    0.3700    0.3800    0.3900
    0.4000    0.4100    0.4200    0.4300    0.4400    0.4500    0.4600    0.4700
    0.4800    0.4900    0.5000    0.5100    0.5200    0.5300    0.5400    0.5500
    0.5600    0.5700    0.5800    0.5900    0.6000    0.6100    0.6200    0.6300
    0.6400    0.6500    0.6600    0.6700    0.6800    0.6900    0.7000    0.7100
    0.7200    0.7300    0.7400    0.7500    0.7600    0.7700    0.7800    0.7900
    0.8000    0.8100    0.8200    0.8300    0.8400    0.8500    0.8600    0.8700
    0.8800    0.8900    0.9000    0.9100    0.9200    0.9300    0.9400    0.9500
    0.9600    0.9700    0.9800    0.9900    1.0000    1.0100    1.0200    1.0300
    1.0400    1.0500    1.0600    1.0700    1.0800    1.0900    1.1000    1.1100
    1.1200    1.1300    1.1400    1.1500    1.1600    1.1700    1.1800    1.1900
    1.2000    1.2100    1.2200    1.2300    1.2400    1.2500    1.2600    1.2700
    1.2800    1.2900    1.3000    1.3100    1.3200    1.3300    1.3400    1.3500
    1.3600    1.3700    1.3800    1.3900    1.4000    1.4100    1.4200    1.4300
    1.4400    1.4500    1.4600    1.4700    1.4800    1.4900    1.5000    1.5100
    1.5200    1.5300    1.5400    1.5500    1.5600    1.5700    1.5800    1.5900
    1.6000    1.6100    1.6200    1.6300    1.6400    1.6500    1.6600    1.6700
    1.6800    1.6900    1.7000    1.7100    1.7200    1.7300    1.7400    1.7500
    1.7600    1.7700    1.7800    1.7900    1.8000    1.8100    1.8200    1.8300
    1.8400    1.8500    1.8600    1.8700    1.8800    1.8900    1.9000    1.9100
    1.9200    1.9300    1.9400    1.9500    1.9600    1.9700    1.9800    1.9900
    2.0000    2.0100    2.0200    2.0300    2.0400    2.0500    2.0600    2.0700
    2.0800    2.0900    2.1000    2.1100    2.1200    2.1300    2.1400    2.1500
    2.1600    2.1700    2.1800    2.1900    2.2000    2.2100    2.2200    2.2300
    2.2400    2.2500    2.2600    2.2700    2.2800    2.2900    2.3000    2.3100
    2.3200    2.3300    2.3400    2.3500    2.3600    2.3700    2.3800    2.3900
    2.4000    2.4100    2.4200    2.4300    2.4400    2.4500    2.4600    2.4700
    2.4800    2.4900    2.5000    2.5100    2.5200    2.5300    2.5400    2.5500
    2.5600    2.5700    2.5800    2.5900    2.6000    2.6100    2.6200    2.6300
    2.6400    2.6500    2.6600    2.6700    2.6800    2.6900    2.7000    2.7100
    2.7200    2.7300    2.7400    2.7500    2.7600    2.7700    2.7800    2.7900
    2.8000    2.8100    2.8200    2.8300    2.8400    2.8500    2.8600    2.8700
    2.8800    2.8900    2.9000    2.9100    2.9200    2.9300    2.9400    2.9500
    2.9600    2.9700    2.9800    2.9900    3.0000    3.0100    3.0200    3.0300
    3.0400    3.0500    3.0600    3.0700    3.0800    3.0900    3.1000    3.1100
    3.1200    3.1300    3.1400    3.1500    3.1600    3.1700    3.1800    3.1900
    3.2000    3.2100    3.2200    3.2300    3.2400    3.2500    3.2600    3.2700
    3.2800    3.2900    3.3000    3.3100    3.3200    3.3300    3.3400    3.3500
    3.3600    3.3700    3.3800    3.3900    3.4000    3.4100    3.4200    3.4300
    3.4400    3.4500    3.4600    3.4700    3.4800    3.4900    3.5000    3.5100
    3.5200    3.5300    3.5400    3.5500    3.5600    3.5700    3.5800    3.5900
    3.6000    3.6100    3.6200    3.6300    3.6400    3.6500    3.6600    3.6700
    3.6800    3.6900    3.7000    3.7100    3.7200    3.7300    3.7400    3.7500
    3.7600    3.7700    3.7800    3.7900    3.8000    3.8100    3.8200    3.8300
    3.8400    3.8500    3.8600    3.8700    3.8800    3.8900    3.9000    3.9100
    3.9200    3.9300    3.9400    3.9500    3.9600    3.9700    3.9800    3.9900
    4.0000    4.0100    4.0200    4.0300    4.0400    4.0500    4.0600    4.0700
    4.0800    4.0900    4.1000    4.1100    4.1200    4.1300    4.1400    4.1500
    4.1600    4.1700    4.1800    4.1900    4.2000    4.2100    4.2200    4.2300
    4.2400    4.2500    4.2600    4.2700    4.2800    4.2900    4.3000    4.3100
    4.3200    4.3300    4.3400    4.3500    4.3600    4.3700    4.3800    4.3900
    4.4000    4.4100    4.4200    4.4300    4.4400    4.4500    4.4600    4.4700
    4.4800    4.4900    4.5000    4.5100    4.5200    4.5300    4.5400    4.5500
    4.5600    4.5700    4.5800    4.5900    4.6000    4.6100    4.6200    4.6300
    4.6400    4.6500    4.6600    4.6700    4.6800    4.6900    4.7000    4.7100
    4.7200    4.7300    4.7400    4.7500    4.7600    4.7700    4.7800    4.7900
    4.8000    4.8100    4.8200    4.8300    4.8400    4.8500    4.8600    4.8700
    4.8800    4.8900    4.9000    4.9100    4.9200    4.9300    4.9400    4.9500
    4.9600    4.9700    4.9800    4.9900    5.0000    5.0100    5.0200    5.0300
    5.0400    5.0500    5.0600    5.0700    5.0800    5.0900    5.1000    5.1100
    5.1200    5.1300    5.1400    5.1500    5.1600    5.1700    5.1800    5.1900
    5.2000    5.2100    5.2200    5.2300    5.2400    5.2500    5.2600    5.2700
    5.2800    5.2900    5.3000    5.3100    5.3200    5.3300    5.3400    5.3500
    5.3600    5.3700    5.3800    5.3900    5.4000    5.4100    5.4200    5.4300
    5.4400    5.4500    5.4600    5.4700    5.4800    5.4900    5.5000    5.5100
    5.5200    5.5300    5.5400    5.5500    5.5600    5.5700    5.5800    5.5900
    5.6000    5.6100    5.6200    5.6300    5.6400    5.6500    5.6600    5.6700
    5.6800    5.6900    5.7000    5.7100    5.7200    5.7300    5.7400    5.7500
    5.7600    5.7700    5.7800    5.7900    5.8000    5.8100    5.8200    5.8300
    5.8400    5.8500    5.8600    5.8700    5.8800    5.8900    5.9000    5.9100
    5.9200    5.9300    5.9400    5.9500    5.9600    5.9700    5.9800    5.9900
    6.0000    6.0100
   </PP_R>
   <PP_RAB type="real"  size=" 602" columns="8">
    0.0100    0.0100    0.0100    0.0100    0.0100    0.0100    0.0100    0.0100
    0.0100    0.0100    0.0100    0.0100    0.0100    0.0100    0.0100    0.0100
    0.0100    0.0100    0.0100    0.0100    0.0100    0.0100    0.0100    0.0100
    0.0100    0.0100    0.0100    0.0100    0.0100    0.0100    0.0100    0.0100
    0.0100    0.0100    0.0100    0.0100    0.0100    0.0100    0.0100    0.0100
    0.0100    0.0100    0.0100    0.0100    0.0100    0.0100    0.0100    0.0100
    0.0100    0.0100    0.0100    0.0100    0.0100    0.0100    0.0100    0.0100
    0.0100    0.0100    0.0100    0.0100    0.0100    0.0100    0.0100    0.0100
    0.0100    0.0100    0.0100    0.0100    0.0100    0.0100    0.0100    0.0100
    0.0100    0.0100    0.0100    0.0100    0.0100    0.0100    0.0100    0.0100
    0.0100    0.0100    0.0100    0.0100    0.0100    0.0100    0.0100    0.0100
    0.0100    0.0100    0.0100    0.0100    0.0100    0.0100    0.0100    0.0100
    0.0100    0.0100    0.0100    0.0100    0.0100    0.0100    0.0100    0.0100
    0.0100    0.0100    0.0100    0.0100    0.0100    0.0100    0.0100    0.0100
    0.0100    0.0100    0.0100    0.0100    0.0100    0.0100    0.0100    0.0100
    0.0100    0.0100    0.0100    0.0100    0.0100    0.0100    0.0100    0.0100
    0.0100    0.0100    0.0100    0.0100    0.0100    0.0100    0.0100    0.0100
    0.0100    0.0100    0.0100    0.0100    0.0100    0.0100    0.0100    0.0100
    0.0100    0.0100    0.0100    0.0100    0.0100    0.0100    0.0100    0.0100
    0.0100    0.0100    0.0100    0.0100    0.0100    0.0100    0.0100    0.0100
    0.0100    0.0100    0.0100    0.0100    0.0100    0.0100    0.0100    0.0100
    0.0100    0.0100    0.0100    0.0100    0.0100    0.0100    0.0100    0.0100
    0.0100    0.0100    0.0100    0.0100    0.0100    0.0100    0.0100    0.0100
    0.0100    0.0100    0.0100    0.0100    0.0100    0.0100    0.0100    0.0100
    0.0100    0.0100    0.0100    0.0100    0.0100    0.0100    0.0100    0.0100
    0.0100    0.0100    0.0100    0.0100    0.0100    0.0100    0.0100    0.0100
    0.0100    0.0100    0.0100    0.0100    0.0100    0.0100    0.0100    0.0100
    0.0100    0.0100    0.0100    0.0100    0.0100    0.0100    0.0100    0.0100
    0.0100    0.0100    0.0100    0.0100    0.0100    0.0100    0.0100    0.0100
    0.0100    0.0100    0.0100    0.0100    0.0100    0.0100    0.0100    0.0100
    0.0100    0.0100    0.0100    0.0100    0.0100    0.0100    0.0100    0.0100
    0.0100    0.0100    0.0100    0.0100    0.0100    0.0100    0.0100    0.0100
    0.0100    0.0100    0.0100    0.0100    0.0100    0.0100    0.0100    0.0100
    0.0100    0.0100    0.0100    0.0100    0.0100    0.0100    0.0100    0.0100
    0.0100    0.0100    0.0100    0.0100    0.0100    0.0100    0.0100    0.0100
    0.0100    0.0100    0.0100    0.0100    0.0100    0.0100    0.0100    0.0100
    0.0100    0.0100    0.0100    0.0100    0.0100    0.0100    0.0100    0.0100
    0.0100    0.0100    0.0100    0.0100    0.0100    0.0100    0.0100    0.0100
    0.0100    0.0100    0.0100    0.0100    0.0100    0.0100    0.0100    0.0100
    0.0100    0.0100    0.0100    0.0100    0.0100    0.0100    0.0100    0.0100
    0.0100    0.0100    0.0100    0.0100    0.0100    0.0100    0.0100    0.0100
    0.0100    0.0100    0.0100    0.0100    0.0100    0.0100    0.0100    0.0100
    0.0100    0.0100    0.0100    0.0100    0.0100    0.0100    0.0100    0.0100
    0.0100    0.0100    0.0100    0.0100    0.0100    0.0100    0.0100    0.0100
    0.0100    0.0100    0.0100    0.0100    0.0100    0.0100    0.0100    0.0100
    0.0100    0.0100    0.0100    0.0100    0.0100    0.0100    0.0100    0.0100
    0.0100    0.0100    0.0100    0.0100    0.0100    0.0100    0.0100    0.0100
    0.0100    0.0100    0.0100    0.0100    0.0100    0.0100    0.0100    0.0100
    0.0100    0.0100    0.0100    0.0100    0.0100    0.0100    0.0100    0.0100
    0.0100    0.0100    0.0100    0.0100    0.0100    0.0100    0.0100    0.0100
    0.0100    0.0100    0.0100    0.0100    0.0100    0.0100    0.0100    0.0100
    0.0100    0.0100    0.0100    0.0100    0.0100    0.0100    0.0100    0.0100
    0.0100    0.0100    0.0100    0.0100    0.0100    0.0100    0.0100    0.0100
    0.0100    0.0100    0.0100    0.0100    0.0100    0.0100    0.0100    0.0100
    0.0100    0.0100    0.0100    0.0100    0.0100    0.0100    0.0100    0.0100
    0.0100    0.0100    0.0100    0.0100    0.0100    0.0100    0.0100    0.0100
    0.0100    0.0100    0.0100    0.0100    0.0100    0.0100    0.0100    0.0100
    0.0100    0.0100    0.0100    0.0100    0.0100    0.0100    0.0100    0.0100
    0.0100    0.0100    0.0100    0.0100    0.0100    0.0100    0.0100    0.0100
    0.0100    0.0100    0.0100    0.0100    0.0100    0.0100    0.0100    0.0100
    0.0100    0.0100    0.0100    0.0100    0.0100    0.0100    0.0100    0.0100
    0.0100    0.0100    0.0100    0.0100    0.0100    0.0100    0.0100    0.0100
    0.0100    0.0100    0.0100    0.0100    0.0100    0.0100    0.0100    0.0100
    0.0100    0.0100    0.0100    0.0100    0.0100    0.0100    0.0100    0.0100
    0.0100    0.0100    0.0100    0.0100    0.0100    0.0100    0.0100    0.0100
    0.0100    0.0100    0.0100    0.0100    0.0100    0.0100    0.0100    0.0100
    0.0100    0.0100    0.0100    0.0100    0.0100    0.0100    0.0100    0.0100
    0.0100    0.0100    0.0100    0.0100    0.0100    0.0100    0.0100    0.0100
    0.0100    0.0100    0.0100    0.0100    0.0100    0.0100    0.0100    0.0100
    0.0100    0.0100    0.0100    0.0100    0.0100    0.0100    0.0100    0.0100
    0.0100    0.0100    0.0100    0.0100    0.0100    0.0100    0.0100    0.0100
    0.0100    0.0100    0.0100    0.0100    0.0100    0.0100    0.0100    0.0100
    0.0100    0.0100    0.0100    0.0100    0.0100    0.0100    0.0100    0.0100
    0.0100    0.0100    0.0100    0.0100    0.0100    0.0100    0.0100    0.0100
    0.0100    0.0100    0.0100    0.0100    0.0100    0.0100    0.0100    0.0100
    0.0100    0.0100
   </PP_RAB>
 </PP_MESH>
  <PP_LOCAL type="real"  size=" 602" columns="4">
   -2.2435458173E+01   -2.2439986198E+01   -2.2455537293E+01   -2.2478915143E+01
   -2.2506923429E+01   -2.2536082874E+01   -2.2563208403E+01   -2.2585788461E+01
   -2.2602136799E+01   -2.2611361041E+01   -2.2613222280E+01   -2.2607954594E+01
   -2.2596091695E+01   -2.2578324811E+01   -2.2555398852E+01   -2.2528044010E+01
   -2.2496935744E+01   -2.2462675291E+01   -2.2425783855E+01   -2.2386705051E+01
   -2.2345811855E+01   -2.2303415386E+01   -2.2259774081E+01   -2.2215102232E+01
   -2.2169577558E+01   -2.2123347572E+01   -2.2076534861E+01   -2.2029241288E+01
   -2.1981551357E+01   -2.1933534827E+01   -2.1885248759E+01   -2.1836739099E+01
   -2.1788041933E+01   -2.1739184458E+01   -2.1690185773E+01   -2.1641057542E+01
   -2.1591804518E+01   -2.1542425037E+01   -2.1492911461E+01   -2.1443250544E+01
   -2.1393423846E+01   -2.1343408104E+01   -2.1293175618E+01   -2.1242694637E+01
   -2.1191929772E+01   -2.1140842422E+01   -2.1089391222E+01   -2.1037532518E+01
   -2.0985220861E+01   -2.0932409519E+01   -2.0879051019E+01   -2.0825097699E+01
   -2.0770502247E+01   -2.0715218290E+01   -2.0659200896E+01   -2.0602407159E+01
   -2.0544796651E+01   -2.0486331926E+01   -2.0426978916E+01   -2.0366707335E+01
   -2.0305490896E+01   -2.0243307725E+01   -2.0180140286E+01   -2.0115975727E+01
   -2.0050805785E+01   -1.9984626661E+01   -1.9917439133E+01   -1.9849248251E+01
   -1.9780063115E+01   -1.9709896601E+01   -1.9638765233E+01   -1.9566688683E+01
   -1.9493689492E+01   -1.9419792721E+01   -1.9345025595E+01   -1.9269417198E+01
   -1.9192998108E+01   -1.9115800077E+01   -1.9037855741E+01   -1.8959198357E+01
   -1.8879861549E+01   -1.8799879092E+01   -1.8719284720E+01   -1.8638111959E+01
   -1.8556393987E+01   -1.8474163516E+01   -1.8391452701E+01   -1.8308293063E+01
   -1.8224715440E+01   -1.8140749938E+01   -1.8056425918E+01   -1.7971771972E+01
   -1.7886815927E+01   -1.7801584848E+01   -1.7716105048E+01   -1.7630402108E+01
   -1.7544500910E+01   -1.7458425619E+01   -1.7372199734E+01   -1.7285846116E+01
   -1.7199387007E+01   -1.7112844059E+01   -1.7026238352E+01   -1.6939590450E+01
   -1.6852920321E+01   -1.6766247451E+01   -1.6679590837E+01   -1.6592968998E+01
   -1.6506400030E+01   -1.6419901491E+01   -1.6333490528E+01   -1.6247183857E+01
   -1.6160997801E+01   -1.6074948209E+01   -1.5989050491E+01   -1.5903319668E+01
   -1.5817770401E+01   -1.5732416837E+01   -1.5647272722E+01   -1.5562351435E+01
   -1.5477665960E+01   -1.5393228742E+01   -1.5309051876E+01   -1.5225147148E+01
   -1.5141525710E+01   -1.5058198384E+01   -1.4975175688E+01   -1.4892467516E+01
   -1.4810083399E+01   -1.4728032605E+01   -1.4646323730E+01   -1.4564965054E+01
   -1.4483964595E+01   -1.4403329656E+01   -1.4323067345E+01   -1.4243184370E+01
   -1.4163686855E+01   -1.4084580796E+01   -1.4005871598E+01   -1.3927564341E+01
   -1.3849663921E+01   -1.3772174573E+01   -1.3695100506E+01   -1.3618445416E+01
   -1.3542212738E+01   -1.3466405746E+01   -1.3391027202E+01   -1.3316079912E+01
   -1.3241566178E+01   -1.3167488282E+01   -1.3093848232E+01   -1.3020647857E+01
   -1.2947888914E+01   -1.2875572900E+01   -1.2803701362E+01   -1.2732275587E+01
   -1.2661296929E+01   -1.2590766585E+01   -1.2520685783E+01   -1.2451055680E+01
   -1.2381877454E+01   -1.2313152265E+01   -1.2244881304E+01   -1.2177065766E+01
   -1.2109706903E+01   -1.2042805973E+01   -1.1976364311E+01   -1.1910383256E+01
   -1.1844864232E+01   -1.1779808668E+01   -1.1715218067E+01   -1.1651093940E+01
   -1.1587437847E+01   -1.1524251362E+01   -1.1461536067E+01   -1.1399293565E+01
   -1.1337525427E+01   -1.1276233228E+01   -1.1215418498E+01   -1.1155082712E+01
   -1.1095227333E+01   -1.1035853649E+01   -1.0976963040E+01   -1.0918556504E+01
   -1.0860635333E+01   -1.0803200182E+01   -1.0746252084E+01   -1.0689791447E+01
   -1.0633818887E+01   -1.0578334599E+01   -1.0523338648E+01   -1.0468831058E+01
   -1.0414811209E+01   -1.0361279000E+01   -1.0308233142E+01   -1.0255673054E+01
   -1.0203597148E+01   -1.0152004030E+01   -1.0100892008E+01   -1.0050258702E+01
   -1.0000102390E+01   -9.9504198254E+00   -9.9012086508E+00   -9.8524654338E+00
   -9.8041867030E+00   -9.7563691092E+00   -9.7090080256E+00   -9.6620998402E+00
   -9.6156393739E+00   -9.5696218450E+00   -9.5240423041E+00   -9.4788946517E+00
   -9.4341734637E+00   -9.3898727048E+00   -9.3459863449E+00   -9.3025084589E+00
   -9.2594335184E+00   -9.2167556303E+00   -9.1744694426E+00   -9.1325695762E+00
   -9.0910504699E+00   -9.0499072215E+00   -9.0091345376E+00   -8.9687274310E+00
   -8.9286811746E+00   -8.8889906648E+00   -8.8496514394E+00   -8.8106588687E+00
   -8.7720082052E+00   -8.7336952938E+00   -8.6957156358E+00   -8.6580649312E+00
   -8.6207391719E+00   -8.5837340583E+00   -8.5470456365E+00   -8.5106699934E+00
   -8.4746029751E+00   -8.4388409040E+00   -8.4033799655E+00   -8.3682162221E+00
   -8.3333461398E+00   -8.2987659971E+00   -8.2644720591E+00   -8.2304608897E+00
   -8.1967288626E+00   -8.1632724125E+00   -8.1300882502E+00   -8.0971728328E+00
   -8.0645227912E+00   -8.0321350989E+00   -8.0000064297E+00   -7.9681336524E+00
   -7.9365139054E+00   -7.9051440976E+00   -7.8740212659E+00   -7.8431426149E+00
   -7.8125051616E+00   -7.7821060540E+00   -7.7519426656E+00   -7.7220121762E+00
   -7.6923118386E+00   -7.6628391566E+00   -7.6335914594E+00   -7.6045660764E+00
   -7.5757606487E+00   -7.5471726561E+00   -7.5187994854E+00   -7.4906389127E+00
   -7.4626885590E+00   -7.4349458809E+00   -7.4074087572E+00   -7.3800749291E+00
   -7.3529420000E+00   -7.3260078567E+00   -7.2992703852E+00   -7.2727273385E+00
   -7.2463765929E+00   -7.2202161775E+00   -7.1942439979E+00   -7.1684579056E+00
   -7.1428560682E+00   -7.1174365191E+00   -7.0921971550E+00   -7.0671361965E+00
   -7.0422517939E+00   -7.0175419940E+00   -6.9930049541E+00   -6.9686389717E+00
   -6.9444422486E+00   -6.9204128689E+00   -6.8965492693E+00   -6.8728497448E+00
   -6.8493124962E+00   -6.8259358976E+00   -6.8027183853E+00   -6.7796583167E+00
   -6.7567539606E+00   -6.7340038968E+00   -6.7114065755E+00   -6.6889603617E+00
   -6.6666637663E+00   -6.6445153759E+00   -6.6225137130E+00   -6.6006571631E+00
   -6.5789444508E+00   -6.5573741690E+00   -6.5359448563E+00   -6.5146550901E+00
   -6.4935036169E+00   -6.4724890935E+00   -6.4516100811E+00   -6.4308653324E+00
   -6.4102536098E+00   -6.3897736328E+00   -6.3694239934E+00   -6.3492035947E+00
   -6.3291112180E+00   -6.3091456116E+00   -6.2893054982E+00   -6.2695898137E+00
   -6.2499973945E+00   -6.2305270207E+00   -6.2111775332E+00   -6.1919478961E+00
   -6.1728370000E+00   -6.1538436618E+00   -6.1349668214E+00   -6.1162054743E+00
   -6.0975585627E+00   -6.0790249447E+00   -6.0606036406E+00   -6.0422936812E+00
   -6.0240940577E+00   -6.0060036728E+00   -5.9880216106E+00   -5.9701469403E+00
   -5.9523787005E+00   -5.9347158412E+00   -5.9171574942E+00   -5.8997027714E+00
   -5.8823507560E+00   -5.8651004486E+00   -5.8479510138E+00   -5.8309016093E+00
   -5.8139513613E+00   -5.7970993236E+00   -5.7803446795E+00   -5.7636866361E+00
   -5.7471243601E+00   -5.7306569620E+00   -5.7142836301E+00   -5.6980036240E+00
   -5.6818161491E+00   -5.6657203753E+00   -5.6497154842E+00   -5.6338007897E+00
   -5.6179755342E+00   -5.6022389501E+00   -5.5865902014E+00   -5.5710286577E+00
   -5.5555535969E+00   -5.5401642967E+00   -5.5248599532E+00   -5.5096399337E+00
   -5.4945035690E+00   -5.4794501706E+00   -5.4644790018E+00   -5.4495893851E+00
   -5.4347807162E+00   -5.4200523387E+00   -5.4054035868E+00   -5.3908337299E+00
   -5.3763422280E+00   -5.3619284555E+00   -5.3475917863E+00   -5.3333315325E+00
   -5.3191471159E+00   -5.3050379730E+00   -5.2910035071E+00   -5.2770431062E+00
   -5.2631561167E+00   -5.2493420461E+00   -5.2356003255E+00   -5.2219303860E+00
   -5.2083316028E+00   -5.1948034437E+00   -5.1813454016E+00   -5.1679569340E+00
   -5.1546374972E+00   -5.1413864657E+00   -5.1282034069E+00   -5.1150878037E+00
   -5.1020391390E+00   -5.0890568642E+00   -5.0761404467E+00   -5.0632894489E+00
   -5.0505033777E+00   -5.0377817401E+00   -5.0251239882E+00   -5.0125296684E+00
   -4.9999983407E+00   -4.9875295350E+00   -4.9751227813E+00   -4.9627775380E+00
   -4.9504934155E+00   -4.9382699757E+00   -4.9261067705E+00   -4.9140033472E+00
   -4.9019591886E+00   -4.8899739419E+00   -4.8780471797E+00   -4.8661784749E+00
   -4.8543673865E+00   -4.8426134396E+00   -4.8309162913E+00   -4.8192755342E+00
   -4.8076907610E+00   -4.7961615463E+00   -4.7846874462E+00   -4.7732681310E+00
   -4.7619032122E+00   -4.7505923015E+00   -4.7393349931E+00   -4.7281308625E+00
   -4.7169795968E+00   -4.7058808258E+00   -4.6948341791E+00   -4.6838392741E+00
   -4.6728956952E+00   -4.6620031497E+00   -4.6511612846E+00   -4.6403697468E+00
   -4.6296281801E+00   -4.6189361682E+00   -4.6082934415E+00   -4.5976996634E+00
   -4.5871544973E+00   -4.5766576068E+00   -4.5662085955E+00   -4.5558071900E+00
   -4.5454530791E+00   -4.5351459421E+00   -4.5248854579E+00   -4.5146712636E+00
   -4.5045030629E+00   -4.4943805763E+00   -4.4843034980E+00   -4.4742715219E+00
   -4.4642843213E+00   -4.4543415692E+00   -4.4444430200E+00   -4.4345883818E+00
   -4.4247773632E+00   -4.4150096723E+00   -4.4052849574E+00   -4.3956029952E+00
   -4.3859635116E+00   -4.3763662288E+00   -4.3668108686E+00   -4.3572971210E+00
   -4.3478247139E+00   -4.3383934143E+00   -4.3290029570E+00   -4.3196530770E+00
   -4.3103435091E+00   -4.3010739272E+00   -4.2918441390E+00   -4.2826538919E+00
   -4.2735029331E+00   -4.2643910100E+00   -4.2553178433E+00   -4.2462831767E+00
   -4.2372868038E+00   -4.2283284838E+00   -4.2194079756E+00   -4.2105250382E+00
   -4.2016793837E+00   -4.1928708143E+00   -4.1840991127E+00   -4.1753640490E+00
   -4.1666653934E+00   -4.1580029109E+00   -4.1493763258E+00   -4.1407854711E+00
   -4.1322301276E+00   -4.1237100762E+00   -4.1152250980E+00   -4.1067749555E+00
   -4.0983594127E+00   -4.0899782990E+00   -4.0816314056E+00   -4.0733185237E+00
   -4.0650394444E+00   -4.0567939321E+00   -4.0485817802E+00   -4.0404028186E+00
   -4.0322568481E+00   -4.0241436695E+00   -4.0160630838E+00   -4.0080148608E+00
   -3.9999988142E+00   -3.9920147773E+00   -3.9840625604E+00   -3.9761419736E+00
   -3.9682528270E+00   -3.9603948998E+00   -3.9525680162E+00   -3.9447720172E+00
   -3.9370067218E+00   -3.9292719490E+00   -3.9215675177E+00   -3.9138932192E+00
   -3.9062488805E+00   -3.8986343532E+00   -3.8910494645E+00   -3.8834940420E+00
   -3.8759679132E+00   -3.8684708845E+00   -3.8610027777E+00   -3.8535634579E+00
   -3.8461527606E+00   -3.8387705213E+00   -3.8314165755E+00   -3.8240907480E+00
   -3.8167928479E+00   -3.8095227568E+00   -3.8022803177E+00   -3.7950653739E+00
   -3.7878777684E+00   -3.7807173445E+00   -3.7735839007E+00   -3.7664773282E+00
   -3.7593974807E+00   -3.7523442086E+00   -3.7453173622E+00   -3.7383167921E+00
   -3.7313423209E+00   -3.7243938115E+00   -3.7174711406E+00   -3.7105741655E+00
   -3.7037027438E+00   -3.6968567327E+00   -3.6900359823E+00   -3.6832403203E+00
   -3.6764696489E+00   -3.6697238321E+00   -3.6630027340E+00   -3.6563062185E+00
   -3.6496341498E+00   -3.6429863623E+00   -3.6363627386E+00   -3.6297631641E+00
   -3.6231875093E+00   -3.6166356446E+00   -3.6101074404E+00   -3.6036027635E+00
   -3.5971214485E+00   -3.5906634116E+00   -3.5842285291E+00   -3.5778166776E+00
   -3.5714277334E+00   -3.5650615729E+00   -3.5587180545E+00   -3.5523970504E+00
   -3.5460984673E+00   -3.5398221876E+00   -3.5335680933E+00   -3.5273360667E+00
   -3.5211259899E+00   -3.5149377167E+00   -3.5087711481E+00   -3.5026261850E+00
   -3.4965027151E+00   -3.4904006261E+00   -3.4843198056E+00   -3.4782601414E+00
   -3.4722214861E+00   -3.4662037612E+00   -3.4602068652E+00   -3.4542306910E+00
   -3.4482751315E+00   -3.4423400796E+00   -3.4364254283E+00   -3.4305310324E+00
   -3.4246568261E+00   -3.4188027088E+00   -3.4129685782E+00   -3.4071543324E+00
   -3.4013598692E+00   -3.3955850865E+00   -3.3898298446E+00   -3.3840940828E+00
   -3.3783777044E+00   -3.3726806122E+00   -3.3670027089E+00   -3.3613438970E+00
   -3.3557040793E+00   -3.3500831242E+00   -3.3444809690E+00   -3.3388975245E+00
   -3.3333326979E+00   -3.3277863963E+00
  </PP_LOCAL>
 <PP_NONLOCAL>
   <PP_BETA.1
       type="real"
       size=" 602"
       columns="4"
       index="1"
       angular_momentum="0"
       cutoff_radius_index=" 250"
       cutoff_radius="    2.4900000000E+00" >
    0.0000000000E+00    3.1645263797E-03    6.3626180740E-03    9.6276704674E-03
    1.2992740027E-02    1.6490377196E-02    2.0152462088E-02    2.4010043905E-02
    2.8093184952E-02    3.2430810120E-02    3.7050562661E-02    4.1978667052E-02
    4.7239799701E-02    5.2856968188E-02    5.8851399719E-02    6.5242439370E-02
    7.2047458696E-02    7.9281775156E-02    8.6958582815E-02    9.5088894613E-02
    1.0368149664E-01    1.1274291437E-01    1.2227739133E-01    1.3228687999E-01
    1.4277104515E-01    1.5372727940E-01    1.6515073096E-01    1.7703434335E-01
    1.8936890670E-01    2.0214312047E-01    2.1534366701E-01    2.2895529568E-01
    2.4296091651E-01    2.5734170372E-01    2.7207720801E-01    2.8714547494E-01
    3.0252317444E-01    3.1818573281E-01    3.3410747055E-01    3.5026175063E-01
    3.6662112285E-01    3.8315747578E-01    3.9984218994E-01    4.1664629212E-01
    4.3354060996E-01    4.5049592587E-01    4.6748312931E-01    4.8447336658E-01
    5.0143818251E-01    5.1834967364E-01    5.3518061879E-01    5.5190460521E-01
    5.6849615522E-01    5.8493086084E-01    6.0118545636E-01    6.1723795984E-01
    6.3306773056E-01    6.4865557139E-01    6.6398378594E-01    6.7903625494E-01
    6.9379845578E-01    7.0825754971E-01    7.2240234488E-01    7.3622337154E-01
    7.4971285442E-01    7.6286469097E-01    7.7567447294E-01    7.8813942774E-01
    8.0025837674E-01    8.1203168214E-01    8.2346120780E-01    8.3455021955E-01