<UPF version="2.0.1">
  <PP_INFO>

 Cr_ONCV_PBE_FR-1.0.upf

 This pseudopotential file has been produced using the code
 ONCVPSP  (Optimized Norm-Conservinng Vanderbilt PSeudopotential)
 fully-relativistic version 2.1.1, 03/26/2014 by D. R. Hamann
 The code is available through a link at URL www.mat-simresearch.com.
 Documentation with the package provides a full description of the
 input data below.

 While it is not required under the terms of the GNU GPL, it is
 suggested that you cite D. R. Hamann, Phys. Rev. B 88, 085117 (2013)
 in any publication using these pseudopotentials.

 -----

 This pseudopotential was produced with the SG15 1.0 and/or 1.1
 parameter sets, the Schlipf-Gygi norm-conserving pseudopotential
 library. For details of the construction and testing of the
 pseudopotential please refer to:

 M. Schlipf, F. Gygi, Comp. Phys. Comm. 196, 36 (2015)
 http://dx.doi.org/10.1016/j.cpc.2015.05.011

 The above authors kindly ask that you include this reference in all
 publications associated to this pseudopotential.

 Please note this fully-relativistic version does not employ the
 above self-consistent procedure at the fully-relativistic level.

 -----

 This pseudopotential was produced by Peter Scherpelz for the purpose
 of performing GW calculations with spin-orbit-coupling. Please see
 the publication:

 P. Scherpelz, M. Govoni, I. Hamada, G. Galli; J. Chem. Theory Comput. (2016)
 http://dx.doi.org/10.1021/acs.jctc.6b00114

 If you use these pseudopotentials in your work, we also kindly ask
 that you cite the above publication.

 -----

 This work is licensed under the Creative Commons Attribution-ShareAlike 
 4.0 International License. To view a copy of this license, visit 
 http://creativecommons.org/licenses/by-sa/4.0/ or send a letter to 
 Creative Commons, PO Box 1866, Mountain View, CA 94042, USA.

 The SG15 library is Copyright 2015 The Regents of the University of
 California.  Further modifications of these files are Copyright 2016
 Peter Scherpelz.

    <PP_INPUTFILE>
# ATOM AND REFERENCE CONFIGURATION
# atsym  z    nc    nv    iexc   psfile
  Cr 24.00     3     4     4      upf
#
#   n    l    f        energy (Ha)
    1    0    2.00
    2    0    2.00
    2    1    6.00
    3    0    2.00
    3    1    6.00
    4    0    2.00
    3    2    4.00
#
# PSEUDOPOTENTIAL AND OPTIMIZATION
# lmax
    2
#
#   l,   rc,     ep,   ncon, nbas, qcut
    0    2.21   -2.86    5    8    6.20
    1    2.37   -1.80    5    8    7.49
    2    2.37   -0.22    5    8    6.98
#
# LOCAL POTENTIAL
# lloc, lpopt,  rc(5),   dvloc0
    4    5      2.01       0.00
#
# VANDERBILT-KLEINMAN-BYLANDER PROJECTORs
# l, nproj, debl
    0    2    2.6841
    1    2    1.7462
    2    2    0.8009
#
# MODEL CORE CHARGE
# icmod, fcfact
    0    0.00
#
# LOG DERIVATIVE ANALYSIS
# epsh1, epsh2, depsh
   -5.00    3.00    0.02
#
# OUTPUT GRID
# rlmax, drl
    6.00    0.01
#
# TEST CONFIGURATIONS
# ncnf
    0
# nvcnf
#   n    l    f
    </PP_INPUTFILE>
  </PP_INFO>
  <!--                               -->
  <!-- END OF HUMAN READABLE SECTION -->
  <!--                               -->
    <PP_HEADER
       generated="Generated using ONCVPSP code by D. R. Hamann"
       author="anonymous"
       date="150703"
       comment=""
       element="Cr"
       pseudo_type="NC"
       relativistic="full"
       is_ultrasoft="F"
       is_paw="F"
       is_coulomb="F"
       has_so="T"
       has_wfc="F"
       has_gipaw="F"
       core_correction="F"
       functional="PBE"
       z_valence="   14.00"
       total_psenergy="  -8.34250423303E+01"
       rho_cutoff="   6.01000000000E+00"
       l_max="2"
       l_local="-1"
       mesh_size="   602"
       number_of_wfc="0"
       number_of_proj="10"/>
 <PP_MESH>
   <PP_R type="real"  size=" 602" columns="8">
    0.0000    0.0100    0.0200    0.0300    0.0400    0.0500    0.0600    0.0700
    0.0800    0.0900    0.1000    0.1100    0.1200    0.1300    0.1400    0.1500
    0.1600    0.1700    0.1800    0.1900    0.2000    0.2100    0.2200    0.2300
    0.2400    0.2500    0.2600    0.2700    0.2800    0.2900    0.3000    0.3100
    0.3200    0.3300    0.3400    0.3500    0.3600    0.3700    0.3800    0.3900
    0.4000    0.4100    0.4200    0.4300    0.4400    0.4500    0.4600    0.4700
    0.4800    0.4900    0.5000    0.5100    0.5200    0.5300    0.5400    0.5500
    0.5600    0.5700    0.5800    0.5900    0.6000    0.6100    0.6200    0.6300
    0.6400    0.6500    0.6600    0.6700    0.6800    0.6900    0.7000    0.7100
    0.7200    0.7300    0.7400    0.7500    0.7600    0.7700    0.7800    0.7900
    0.8000    0.8100    0.8200    0.8300    0.8400    0.8500    0.8600    0.8700
    0.8800    0.8900    0.9000    0.9100    0.9200    0.9300    0.9400    0.9500
    0.9600    0.9700    0.9800    0.9900    1.0000    1.0100    1.0200    1.0300
    1.0400    1.0500    1.0600    1.0700    1.0800    1.0900    1.1000    1.1100
    1.1200    1.1300    1.1400    1.1500    1.1600    1.1700    1.1800    1.1900
    1.2000    1.2100    1.2200    1.2300    1.2400    1.2500    1.2600    1.2700
    1.2800    1.2900    1.3000    1.3100    1.3200    1.3300    1.3400    1.3500
    1.3600    1.3700    1.3800    1.3900    1.4000    1.4100    1.4200    1.4300
    1.4400    1.4500    1.4600    1.4700    1.4800    1.4900    1.5000    1.5100
    1.5200    1.5300    1.5400    1.5500    1.5600    1.5700    1.5800    1.5900
    1.6000    1.6100    1.6200    1.6300    1.6400    1.6500    1.6600    1.6700
    1.6800    1.6900    1.7000    1.7100    1.7200    1.7300    1.7400    1.7500
    1.7600    1.7700    1.7800    1.7900    1.8000    1.8100    1.8200    1.8300
    1.8400    1.8500    1.8600    1.8700    1.8800    1.8900    1.9000    1.9100
    1.9200    1.9300    1.9400    1.9500    1.9600    1.9700    1.9800    1.9900
    2.0000    2.0100    2.0200    2.0300    2.0400    2.0500    2.0600    2.0700
    2.0800    2.0900    2.1000    2.1100    2.1200    2.1300    2.1400    2.1500
    2.1600    2.1700    2.1800    2.1900    2.2000    2.2100    2.2200    2.2300
    2.2400    2.2500    2.2600    2.2700    2.2800    2.2900    2.3000    2.3100
    2.3200    2.3300    2.3400    2.3500    2.3600    2.3700    2.3800    2.3900
    2.4000    2.4100    2.4200    2.4300    2.4400    2.4500    2.4600    2.4700
    2.4800    2.4900    2.5000    2.5100    2.5200    2.5300    2.5400    2.5500
    2.5600    2.5700    2.5800    2.5900    2.6000    2.6100    2.6200    2.6300
    2.6400    2.6500    2.6600    2.6700    2.6800    2.6900    2.7000    2.7100
    2.7200    2.7300    2.7400    2.7500    2.7600    2.7700    2.7800    2.7900
    2.8000    2.8100    2.8200    2.8300    2.8400    2.8500    2.8600    2.8700
    2.8800    2.8900    2.9000    2.9100    2.9200    2.9300    2.9400    2.9500
    2.9600    2.9700    2.9800    2.9900    3.0000    3.0100    3.0200    3.0300
    3.0400    3.0500    3.0600    3.0700    3.0800    3.0900    3.1000    3.1100
    3.1200    3.1300    3.1400    3.1500    3.1600    3.1700    3.1800    3.1900
    3.2000    3.2100    3.2200    3.2300    3.2400    3.2500    3.2600    3.2700
    3.2800    3.2900    3.3000    3.3100    3.3200    3.3300    3.3400    3.3500
    3.3600    3.3700    3.3800    3.3900    3.4000    3.4100    3.4200    3.4300
    3.4400    3.4500    3.4600    3.4700    3.4800    3.4900    3.5000    3.5100
    3.5200    3.5300    3.5400    3.5500    3.5600    3.5700    3.5800    3.5900
    3.6000    3.6100    3.6200    3.6300    3.6400    3.6500    3.6600    3.6700
    3.6800    3.6900    3.7000    3.7100    3.7200    3.7300    3.7400    3.7500
    3.7600    3.7700    3.7800    3.7900    3.8000    3.8100    3.8200    3.8300
    3.8400    3.8500    3.8600    3.8700    3.8800    3.8900    3.9000    3.9100
    3.9200    3.9300    3.9400    3.9500    3.9600    3.9700    3.9800    3.9900
    4.0000    4.0100    4.0200    4.0300    4.0400    4.0500    4.0600    4.0700
    4.0800    4.0900    4.1000    4.1100    4.1200    4.1300    4.1400    4.1500
    4.1600    4.1700    4.1800    4.1900    4.2000    4.2100    4.2200    4.2300
    4.2400    4.2500    4.2600    4.2700    4.2800    4.2900    4.3000    4.3100
    4.3200    4.3300    4.3400    4.3500    4.3600    4.3700    4.3800    4.3900
    4.4000    4.4100    4.4200    4.4300    4.4400    4.4500    4.4600    4.4700
    4.4800    4.4900    4.5000    4.5100    4.5200    4.5300    4.5400    4.5500
    4.5600    4.5700    4.5800    4.5900    4.6000    4.6100    4.6200    4.6300
    4.6400    4.6500    4.6600    4.6700    4.6800    4.6900    4.7000    4.7100
    4.7200    4.7300    4.7400    4.7500    4.7600    4.7700    4.7800    4.7900
    4.8000    4.8100    4.8200    4.8300    4.8400    4.8500    4.8600    4.8700
    4.8800    4.8900    4.9000    4.9100    4.9200    4.9300    4.9400    4.9500
    4.9600    4.9700    4.9800    4.9900    5.0000    5.0100    5.0200    5.0300
    5.0400    5.0500    5.0600    5.0700    5.0800    5.0900    5.1000    5.1100
    5.1200    5.1300    5.1400    5.1500    5.1600    5.1700    5.1800    5.1900
    5.2000    5.2100    5.2200    5.2300    5.2400    5.2500    5.2600    5.2700
    5.2800    5.2900    5.3000    5.3100    5.3200    5.3300    5.3400    5.3500
    5.3600    5.3700    5.3800    5.3900    5.4000    5.4100    5.4200    5.4300
    5.4400    5.4500    5.4600    5.4700    5.4800    5.4900    5.5000    5.5100
    5.5200    5.5300    5.5400    5.5500    5.5600    5.5700    5.5800    5.5900
    5.6000    5.6100    5.6200    5.6300    5.6400    5.6500    5.6600    5.6700
    5.6800    5.6900    5.7000    5.7100    5.7200    5.7300    5.7400    5.7500
    5.7600    5.7700    5.7800    5.7900    5.8000    5.8100    5.8200    5.8300
    5.8400    5.8500    5.8600    5.8700    5.8800    5.8900    5.9000    5.9100
    5.9200    5.9300    5.9400    5.9500    5.9600    5.9700    5.9800    5.9900
    6.0000    6.0100
   </PP_R>
   <PP_RAB type="real"  size=" 602" columns="8">
    0.0100    0.0100    0.0100    0.0100    0.0100    0.0100    0.0100    0.0100
    0.0100    0.0100    0.0100    0.0100    0.0100    0.0100    0.0100    0.0100
    0.0100    0.0100    0.0100    0.0100    0.0100    0.0100    0.0100    0.0100
    0.0100    0.0100    0.0100    0.0100    0.0100    0.0100    0.0100    0.0100
    0.0100    0.0100    0.0100    0.0100    0.0100    0.0100    0.0100    0.0100
    0.0100    0.0100    0.0100    0.0100    0.0100    0.0100    0.0100    0.0100
    0.0100    0.0100    0.0100    0.0100    0.0100    0.0100    0.0100    0.0100
    0.0100    0.0100    0.0100    0.0100    0.0100    0.0100    0.0100    0.0100
    0.0100    0.0100    0.0100    0.0100    0.0100    0.0100    0.0100    0.0100
    0.0100    0.0100    0.0100    0.0100    0.0100    0.0100    0.0100    0.0100
    0.0100    0.0100    0.0100    0.0100    0.0100    0.0100    0.0100    0.0100
    0.0100    0.0100    0.0100    0.0100    0.0100    0.0100    0.0100    0.0100
    0.0100    0.0100    0.0100    0.0100    0.0100    0.0100    0.0100    0.0100
    0.0100    0.0100    0.0100    0.0100    0.0100    0.0100    0.0100    0.0100
    0.0100    0.0100    0.0100    0.0100    0.0100    0.0100    0.0100    0.0100
    0.0100    0.0100    0.0100    0.0100    0.0100    0.0100    0.0100    0.0100
    0.0100    0.0100    0.0100    0.0100    0.0100    0.0100    0.0100    0.0100
    0.0100    0.0100    0.0100    0.0100    0.0100    0.0100    0.0100    0.0100
    0.0100    0.0100    0.0100    0.0100    0.0100    0.0100    0.0100    0.0100
    0.0100    0.0100    0.0100    0.0100    0.0100    0.0100    0.0100    0.0100
    0.0100    0.0100    0.0100    0.0100    0.0100    0.0100    0.0100    0.0100
    0.0100    0.0100    0.0100    0.0100    0.0100    0.0100    0.0100    0.0100
    0.0100    0.0100    0.0100    0.0100    0.0100    0.0100    0.0100    0.0100
    0.0100    0.0100    0.0100    0.0100    0.0100    0.0100    0.0100    0.0100
    0.0100    0.0100    0.0100    0.0100    0.0100    0.0100    0.0100    0.0100
    0.0100    0.0100    0.0100    0.0100    0.0100    0.0100    0.0100    0.0100
    0.0100    0.0100    0.0100    0.0100    0.0100    0.0100    0.0100    0.0100
    0.0100    0.0100    0.0100    0.0100    0.0100    0.0100    0.0100    0.0100
    0.0100    0.0100    0.0100    0.0100    0.0100    0.0100    0.0100    0.0100
    0.0100    0.0100    0.0100    0.0100    0.0100    0.0100    0.0100    0.0100
    0.0100    0.0100    0.0100    0.0100    0.0100    0.0100    0.0100    0.0100
    0.0100    0.0100    0.0100    0.0100    0.0100    0.0100    0.0100    0.0100
    0.0100    0.0100    0.0100    0.0100    0.0100    0.0100    0.0100    0.0100
    0.0100    0.0100    0.0100    0.0100    0.0100    0.0100    0.0100    0.0100
    0.0100    0.0100    0.0100    0.0100    0.0100    0.0100    0.0100    0.0100
    0.0100    0.0100    0.0100    0.0100    0.0100    0.0100    0.0100    0.0100
    0.0100    0.0100    0.0100    0.0100    0.0100    0.0100    0.0100    0.0100
    0.0100    0.0100    0.0100    0.0100    0.0100    0.0100    0.0100    0.0100
    0.0100    0.0100    0.0100    0.0100    0.0100    0.0100    0.0100    0.0100
    0.0100    0.0100    0.0100    0.0100    0.0100    0.0100    0.0100    0.0100
    0.0100    0.0100    0.0100    0.0100    0.0100    0.0100    0.0100    0.0100
    0.0100    0.0100    0.0100    0.0100    0.0100    0.0100    0.0100    0.0100
    0.0100    0.0100    0.0100    0.0100    0.0100    0.0100    0.0100    0.0100
    0.0100    0.0100    0.0100    0.0100    0.0100    0.0100    0.0100    0.0100
    0.0100    0.0100    0.0100    0.0100    0.0100    0.0100    0.0100    0.0100
    0.0100    0.0100    0.0100    0.0100    0.0100    0.0100    0.0100    0.0100
    0.0100    0.0100    0.0100    0.0100    0.0100    0.0100    0.0100    0.0100
    0.0100    0.0100    0.0100    0.0100    0.0100    0.0100    0.0100    0.0100
    0.0100    0.0100    0.0100    0.0100    0.0100    0.0100    0.0100    0.0100
    0.0100    0.0100    0.0100    0.0100    0.0100    0.0100    0.0100    0.0100
    0.0100    0.0100    0.0100    0.0100    0.0100    0.0100    0.0100    0.0100
    0.0100    0.0100    0.0100    0.0100    0.0100    0.0100    0.0100    0.0100
    0.0100    0.0100    0.0100    0.0100    0.0100    0.0100    0.0100    0.0100
    0.0100    0.0100    0.0100    0.0100    0.0100    0.0100    0.0100    0.0100
    0.0100    0.0100    0.0100    0.0100    0.0100    0.0100    0.0100    0.0100
    0.0100    0.0100    0.0100    0.0100    0.0100    0.0100    0.0100    0.0100
    0.0100    0.0100    0.0100    0.0100    0.0100    0.0100    0.0100    0.0100
    0.0100    0.0100    0.0100    0.0100    0.0100    0.0100    0.0100    0.0100
    0.0100    0.0100    0.0100    0.0100    0.0100    0.0100    0.0100    0.0100
    0.0100    0.0100    0.0100    0.0100    0.0100    0.0100    0.0100    0.0100
    0.0100    0.0100    0.0100    0.0100    0.0100    0.0100    0.0100    0.0100
    0.0100    0.0100    0.0100    0.0100    0.0100    0.0100    0.0100    0.0100
    0.0100    0.0100    0.0100    0.0100    0.0100    0.0100    0.0100    0.0100
    0.0100    0.0100    0.0100    0.0100    0.0100    0.0100    0.0100    0.0100
    0.0100    0.0100    0.0100    0.0100    0.0100    0.0100    0.0100    0.0100
    0.0100    0.0100    0.0100    0.0100    0.0100    0.0100    0.0100    0.0100
    0.0100    0.0100    0.0100    0.0100    0.0100    0.0100    0.0100    0.0100
    0.0100    0.0100    0.0100    0.0100    0.0100    0.0100    0.0100    0.0100
    0.0100    0.0100    0.0100    0.0100    0.0100    0.0100    0.0100    0.0100
    0.0100    0.0100    0.0100    0.0100    0.0100    0.0100    0.0100    0.0100
    0.0100    0.0100    0.0100    0.0100    0.0100    0.0100    0.0100    0.0100
    0.0100    0.0100    0.0100    0.0100    0.0100    0.0100    0.0100    0.0100
    0.0100    0.0100    0.0100    0.0100    0.0100    0.0100    0.0100    0.0100
    0.0100    0.0100    0.0100    0.0100    0.0100    0.0100    0.0100    0.0100
    0.0100    0.0100    0.0100    0.0100    0.0100    0.0100    0.0100    0.0100
    0.0100    0.0100
   </PP_RAB>
 </PP_MESH>
  <PP_LOCAL type="real"  size=" 602" columns="4">
   -3.3456521614E+01   -3.3456380751E+01   -3.3456238568E+01   -3.3455748080E+01
   -3.3454562301E+01   -3.3452255262E+01   -3.3448368022E+01   -3.3442452474E+01
   -3.3434107187E+01   -3.3423002106E+01   -3.3408891437E+01   -3.3391616052E+01
   -3.3371097882E+01   -3.3347329121E+01   -3.3320358848E+01   -3.3290279105E+01
   -3.3257211846E+01   -3.3221297572E+01   -3.3182686014E+01   -3.3141528857E+01
   -3.3097974362E+01   -3.3052163591E+01   -3.3004227939E+01   -3.2954287668E+01
   -3.2902451204E+01   -3.2848814973E+01   -3.2793463584E+01   -3.2736470286E+01
   -3.2677897546E+01   -3.2617797709E+01   -3.2556213695E+01   -3.2493179689E+01
   -3.2428721827E+01   -3.2362858858E+01   -3.2295602749E+01   -3.2226959307E+01
   -3.2156928729E+01   -3.2085506183E+01   -3.2012682302E+01   -3.1938443736E+01
   -3.1862773654E+01   -3.1785652259E+01   -3.1707057291E+01   -3.1626964545E+01
   -3.1545348379E+01   -3.1462182239E+01   -3.1377439174E+01   -3.1291092357E+01
   -3.1203115604E+01   -3.1113483865E+01   -3.1022173736E+01   -3.0929163937E+01
   -3.0834435726E+01   -3.0737973346E+01   -3.0639764417E+01   -3.0539800171E+01
   -3.0438075916E+01   -3.0334591017E+01   -3.0229349349E+01   -3.0122359105E+01
   -3.0013633145E+01   -2.9903188742E+01   -2.9791047649E+01   -2.9677235997E+01
   -2.9561783988E+01   -2.9444725860E+01   -2.9326099568E+01   -2.9205946463E+01
   -2.9084311030E+01   -2.8961240663E+01   -2.8836785223E+01   -2.8710996764E+01
   -2.8583929205E+01   -2.8455638045E+01   -2.8326180057E+01   -2.8195612982E+01
   -2.8063995285E+01   -2.7931385902E+01   -2.7797844027E+01   -2.7663428904E+01
   -2.7528199648E+01   -2.7392215091E+01   -2.7255533636E+01   -2.7118213143E+01
   -2.6980310818E+01   -2.6841883128E+01   -2.6702985728E+01   -2.6563673395E+01
   -2.6423999974E+01   -2.6284018332E+01   -2.6143780326E+01   -2.6003336763E+01
   -2.5862737379E+01   -2.5722030807E+01   -2.5581264562E+01   -2.5440485014E+01
   -2.5299737370E+01   -2.5159065656E+01   -2.5018512721E+01   -2.4878120172E+01
   -2.4737928333E+01   -2.4597976282E+01   -2.4458301806E+01   -2.4318941378E+01
   -2.4179930177E+01   -2.4041301985E+01   -2.3903089103E+01   -2.3765322459E+01
   -2.3628031535E+01   -2.3491244454E+01   -2.3354987674E+01   -2.3219286085E+01
   -2.3084163086E+01   -2.2949640626E+01   -2.2815738947E+01   -2.2682476523E+01
   -2.2549870327E+01   -2.2417935947E+01   -2.2286686943E+01   -2.2156135295E+01
   -2.2026291577E+01   -2.1897164799E+01   -2.1768761981E+01   -2.1641088914E+01
   -2.1514150212E+01   -2.1387948360E+01   -2.1262484883E+01   -2.1137760385E+01
   -2.1013773559E+01   -2.0890522470E+01   -2.0768004413E+01   -2.0646215338E+01
   -2.0525150908E+01   -2.0404806159E+01   -2.0285175592E+01   -2.0166253640E+01
   -2.0048034495E+01   -1.9930512565E+01   -1.9813682203E+01   -1.9697538438E+01
   -1.9582076578E+01   -1.9467292455E+01   -1.9353183069E+01   -1.9239745385E+01
   -1.9126978309E+01   -1.9014880898E+01   -1.8903453537E+01   -1.8792697855E+01
   -1.8682615765E+01   -1.8573211388E+01   -1.8464488481E+01   -1.8356453067E+01
   -1.8249111049E+01   -1.8142469763E+01   -1.8036536998E+01   -1.7931321175E+01
   -1.7826831401E+01   -1.7723076924E+01   -1.7620067502E+01   -1.7517812901E+01
   -1.7416322845E+01   -1.7315607216E+01   -1.7215675107E+01   -1.7116535959E+01
   -1.7018197782E+01   -1.6920669010E+01   -1.6823956129E+01   -1.6728066089E+01
   -1.6633003436E+01   -1.6538773277E+01   -1.6445377852E+01   -1.6352820200E+01
   -1.6261099996E+01   -1.6170218114E+01   -1.6080171562E+01   -1.5990959061E+01
   -1.5902575068E+01   -1.5815016247E+01   -1.5728274973E+01   -1.5642345701E+01
   -1.5557219639E+01   -1.5472889140E+01   -1.5389344918E+01   -1.5306577833E+01
   -1.5224578463E+01   -1.5143337100E+01   -1.5062844343E+01   -1.4983090963E+01
   -1.4904067612E+01   -1.4825766439E+01   -1.4748178268E+01   -1.4671296782E+01
   -1.4595114140E+01   -1.4519624632E+01   -1.4444822424E+01   -1.4370702128E+01
   -1.4297259769E+01   -1.4224490391E+01   -1.4152390946E+01   -1.4080957571E+01
   -1.4010187007E+01   -1.3940075983E+01   -1.3870621222E+01   -1.3801819681E+01
   -1.3733668243E+01   -1.3666163738E+01   -1.3599303261E+01   -1.3533083384E+01
   -1.3467500271E+01   -1.3402550900E+01   -1.3338230036E+01   -1.3274533750E+01
   -1.3211456829E+01   -1.3148993258E+01   -1.3087138353E+01   -1.3025884501E+01
   -1.2965225530E+01   -1.2905154379E+01   -1.2845662916E+01   -1.2786744171E+01
   -1.2728389356E+01   -1.2670590197E+01   -1.2613338458E+01   -1.2556625030E+01
   -1.2500441194E+01   -1.2444778129E+01   -1.2389626979E+01   -1.2334978615E+01
   -1.2280824769E+01   -1.2227156777E+01   -1.2173965903E+01   -1.2121244660E+01
   -1.2068984575E+01   -1.2017178046E+01   -1.1965818459E+01   -1.1914897825E+01
   -1.1864410171E+01   -1.1814349714E+01   -1.1764709369E+01   -1.1715484556E+01
   -1.1666670073E+01   -1.1618260214E+01   -1.1570250543E+01   -1.1522636130E+01
   -1.1475411983E+01   -1.1428573516E+01   -1.1382115894E+01   -1.1336034278E+01
   -1.1290324414E+01   -1.1244981708E+01   -1.1200001617E+01   -1.1155380055E+01
   -1.1111112639E+01   -1.1067195048E+01   -1.1023623383E+01   -1.0980393468E+01
   -1.0937501164E+01   -1.0894942766E+01   -1.0852714305E+01   -1.0810811794E+01
   -1.0769231720E+01   -1.0727970320E+01   -1.0687023730E+01   -1.0646388623E+01
   -1.0606061449E+01   -1.0566038434E+01   -1.0526316440E+01   -1.0486892087E+01
   -1.0447761784E+01   -1.0408922462E+01   -1.0370370937E+01   -1.0332103824E+01
   -1.0294118073E+01   -1.0256410702E+01   -1.0218978539E+01   -1.0181818524E+01
   -1.0144927877E+01   -1.0108303638E+01   -1.0071942724E+01   -1.0035842546E+01
   -1.0000000311E+01   -9.9644130451E+00   -9.9290781949E+00   -9.8939931471E+00
   -9.8591551381E+00   -9.8245615328E+00   -9.7902099228E+00   -9.7560977624E+00
   -9.7222223213E+00   -9.6885813844E+00   -9.6551725328E+00   -9.6219932174E+00
   -9.5890411240E+00   -9.5563140366E+00   -9.5238096253E+00   -9.4915254342E+00
   -9.4594594478E+00   -9.4276094671E+00   -9.3959731715E+00   -9.3645484535E+00
   -9.3333333051E+00   -9.3023256274E+00   -9.2715231353E+00   -9.2409240210E+00
   -9.2105262859E+00   -9.1803278500E+00   -9.1503267124E+00   -9.1205210868E+00
   -9.0909090676E+00   -9.0614886058E+00   -9.0322579533E+00   -9.0032153441E+00
   -8.9743589522E+00   -8.9456867990E+00   -8.9171973259E+00   -8.8888888007E+00
   -8.8607594338E+00   -8.8328074455E+00   -8.8050313125E+00   -8.7774293834E+00
   -8.7499999125E+00   -8.7227412921E+00   -8.6956520366E+00   -8.6687305715E+00
   -8.6419752021E+00   -8.6153844651E+00   -8.5889569172E+00   -8.5626910571E+00
   -8.5365852472E+00   -8.5106381424E+00   -8.4848483470E+00   -8.4592144296E+00
   -8.4337348147E+00   -8.4084082508E+00   -8.3832333954E+00   -8.3582088839E+00
   -8.3333332066E+00   -8.3086051837E+00   -8.2840235310E+00   -8.2595869475E+00
   -8.2352939936E+00   -8.2111435394E+00   -8.1871343647E+00   -8.1632652291E+00
   -8.1395347664E+00   -8.1159418774E+00   -8.0924854102E+00   -8.0691641823E+00
   -8.0459769050E+00   -8.0229224909E+00   -7.9999998607E+00   -7.9772078872E+00
   -7.9545453633E+00   -7.9320111956E+00   -7.9096043813E+00   -7.8873238457E+00
   -7.8651684680E+00   -7.8431371322E+00   -7.8212289150E+00   -7.7994427914E+00
   -7.7777777312E+00   -7.7562325822E+00   -7.7348065013E+00   -7.7134985112E+00
   -7.6923076351E+00   -7.6712327954E+00   -7.6502731072E+00   -7.6294276791E+00
   -7.6086955797E+00   -7.5880758289E+00   -7.5675674688E+00   -7.5471697004E+00
   -7.5268816355E+00   -7.5067023861E+00   -7.4866309429E+00   -7.4666665658E+00
   -7.4468084186E+00   -7.4270556545E+00   -7.4074073678E+00   -7.3878627150E+00
   -7.3684209613E+00   -7.3490812996E+00   -7.3298429224E+00   -7.3107049079E+00
   -7.2916665862E+00   -7.2727271986E+00   -7.2538859754E+00   -7.2351421050E+00
   -7.2164947877E+00   -7.1979433729E+00   -7.1794871266E+00   -7.1611253151E+00
   -7.1428571206E+00   -7.1246818780E+00   -7.1065989258E+00   -7.0886075645E+00
   -7.0707070945E+00   -7.0528967005E+00   -7.0351758297E+00   -7.0175438156E+00
   -6.9999999912E+00   -6.9825436609E+00   -6.9651741060E+00   -6.9478907778E+00
   -6.9306930403E+00   -6.9135802576E+00   -6.8965517439E+00   -6.8796068609E+00
   -6.8627450668E+00   -6.8459657551E+00   -6.8292683197E+00   -6.8126520909E+00
   -6.7961164927E+00   -6.7796609954E+00   -6.7632850211E+00   -6.7469879915E+00
   -6.7307692591E+00   -6.7146282929E+00   -6.6985645809E+00   -6.6825775721E+00
   -6.6666667154E+00   -6.6508313899E+00   -6.6350710939E+00   -6.6193853386E+00
   -6.6037735985E+00   -6.5882353482E+00   -6.5727699986E+00   -6.5573770621E+00
   -6.5420560779E+00   -6.5268065452E+00   -6.5116279630E+00   -6.4965197786E+00
   -6.4814815041E+00   -6.4665127120E+00   -6.4516129246E+00   -6.4367816641E+00
   -6.4220184189E+00   -6.4073226880E+00   -6.3926940806E+00   -6.3781321414E+00
   -6.3636364150E+00   -6.3492064349E+00   -6.3348416749E+00   -6.3205417848E+00
   -6.3063063304E+00   -6.2921348777E+00   -6.2780269924E+00   -6.2639821634E+00
   -6.2500000330E+00   -6.2360802041E+00   -6.2222222626E+00   -6.2084257948E+00
   -6.1946903431E+00   -6.1810154970E+00   -6.1674009105E+00   -6.1538461892E+00
   -6.1403509384E+00   -6.1269147586E+00   -6.1135371771E+00   -6.1002179011E+00
   -6.0869565542E+00   -6.0737527604E+00   -6.0606061433E+00   -6.0475162766E+00
   -6.0344828057E+00   -6.0215054098E+00   -6.0085837302E+00   -5.9957174083E+00
   -5.9829060837E+00   -5.9701493169E+00   -5.9574468482E+00   -5.9447983356E+00
   -5.9322034372E+00   -5.9196618108E+00   -5.9071730806E+00   -5.8947368946E+00
   -5.8823529766E+00   -5.8700210007E+00   -5.8577406408E+00   -5.8455115707E+00
   -5.8333334057E+00   -5.8212058659E+00   -5.8091286637E+00   -5.7971014879E+00
   -5.7851240279E+00   -5.7731959727E+00   -5.7613169352E+00   -5.7494866920E+00
   -5.7377049491E+00   -5.7259714102E+00   -5.7142857789E+00   -5.7026477470E+00
   -5.6910569661E+00   -5.6795132190E+00   -5.6680162234E+00   -5.6565656965E+00
   -5.6451613558E+00   -5.6338028988E+00   -5.6224900098E+00   -5.6112224755E+00
   -5.6000000264E+00   -5.5888223933E+00   -5.5776893065E+00   -5.5666004745E+00
   -5.5555556015E+00   -5.5445544826E+00   -5.5335968611E+00   -5.5226824800E+00
   -5.5118110825E+00   -5.5009823924E+00   -5.4901961218E+00   -5.4794520791E+00
   -5.4687500193E+00   -5.4580896976E+00   -5.4474708691E+00   -5.4368932773E+00
   -5.4263566315E+00   -5.4158607571E+00   -5.4054054206E+00   -5.3949903887E+00
   -5.3846154277E+00   -5.3742803042E+00   -5.3639847175E+00   -5.3537285105E+00
   -5.3435114619E+00   -5.3333333489E+00   -5.3231939491E+00   -5.3130930399E+00
   -5.3030303492E+00   -5.2930056927E+00   -5.2830188766E+00   -5.2730696887E+00
   -5.2631579167E+00   -5.2532833483E+00   -5.2434457446E+00   -5.2336448844E+00
   -5.2238806048E+00   -5.2141527034E+00   -5.2044609779E+00   -5.1948052260E+00
   -5.1851852453E+00   -5.1756007698E+00   -5.1660516700E+00   -5.1565377529E+00
   -5.1470588258E+00   -5.1376146955E+00   -5.1282051694E+00   -5.1188300214E+00
   -5.1094890658E+00   -5.1001821488E+00   -5.0909090866E+00   -5.0816696953E+00
   -5.0724637909E+00   -5.0632911895E+00   -5.0541516486E+00   -5.0450450484E+00
   -5.0359712161E+00   -5.0269299762E+00   -5.0179211534E+00   -5.0089445723E+00
   -5.0000000379E+00   -4.9910873564E+00   -4.9822064013E+00   -4.9733570051E+00
   -4.9645390009E+00   -4.9557522214E+00   -4.9469964994E+00   -4.9382716319E+00
   -4.9295774689E+00   -4.9209138743E+00   -4.9122806885E+00   -4.9036777522E+00
   -4.8951049060E+00   -4.8865619904E+00   -4.8780487998E+00   -4.8695652160E+00
   -4.8611110979E+00   -4.8526862936E+00   -4.8442906512E+00   -4.8359240185E+00
   -4.8275862437E+00   -4.8192771230E+00   -4.8109965588E+00   -4.8027444101E+00
   -4.7945205319E+00   -4.7863247794E+00   -4.7781570077E+00   -4.7700170719E+00
   -4.7619047743E+00   -4.7538200278E+00   -4.7457626955E+00   -4.7377326396E+00
   -4.7297297216E+00   -4.7217538037E+00   -4.7138047475E+00   -4.7058823657E+00
   -4.6979865714E+00   -4.6901172367E+00   -4.6822742299E+00   -4.6744574193E+00
   -4.6666666733E+00   -4.6589018600E+00
  </PP_LOCAL>
 <PP_NONLOCAL>
   <PP_BETA.1
       type="real"
       size=" 602"
       columns="4"
       index="1"
       angular_momentum="0"
       cutoff_radius_index=" 242"
       cutoff_radius="    2.4100000000E+00" >
    0.0000000000E+00    2.9489355756E-02    5.8957854510E-02    8.8384672341E-02
    1.1774905135E-01    1.4703033234E-01    1.7620798704E-01    2.0526164982E-01
    2.3417114874E-01    2.6291653570E-01    2.9147811582E-01    3.1983647559E-01
    3.4797251004E-01    3.7586744853E-01    4.0350287923E-01    4.3086077218E-01
    4.5792350083E-01    4.8467386192E-01    5.1109509384E-01    5.3717089318E-01
    5.6288542960E-01    5.8822335894E-01    6.1316983452E-01    6.3771051664E-01
    6.6183158039E-01    6.8551972147E-01    7.0876216057E-01    7.3154664573E-01
    7.5386145320E-01    7.7569538667E-01    7.9703777489E-01    8.1787846788E-01
    8.3820783162E-01    8.5801674161E-01    8.7729657504E-01    8.9603920199E-01
    9.1423697546E-01    9.3188272081E-01    9.4896972399E-01    9.6549171956E-01
    9.8144287794E-01    9.9681779236E-01    1.0116114655E+00    1.0258192959E+00
    1.0394370648E+00    1.0524609223E+00    1.0648873747E+00    1.0767132714E+00
    1.0879357927E+00    1.0985524386E+00    1.1085610171E+00    1.1179596341E+00
    1.1267466850E+00    1.1349208454E+00    1.1424810638E+00    1.1494265576E+00
    1.1557568037E+00    1.1614715410E+00    1.1665707613E+00    1.1710547144E+00
    1.1749239030E+00    1.1781790882E+00    1.1808212903E+00    1.1828517927E+00
    1.1842721492E+00    1.1850841886E+00    1.1852900236E+00    1.1848920594E+00