<UPF version="2.0.1">
  <PP_INFO>

 Cu_ONCV_PBE_FR-1.0.upf

 This pseudopotential file has been produced using the code
 ONCVPSP  (Optimized Norm-Conservinng Vanderbilt PSeudopotential)
 fully-relativistic version 2.1.1, 03/26/2014 by D. R. Hamann
 The code is available through a link at URL www.mat-simresearch.com.
 Documentation with the package provides a full description of the
 input data below.

 While it is not required under the terms of the GNU GPL, it is
 suggested that you cite D. R. Hamann, Phys. Rev. B 88, 085117 (2013)
 in any publication using these pseudopotentials.

 -----

 This pseudopotential was produced with the SG15 1.0 and/or 1.1
 parameter sets, the Schlipf-Gygi norm-conserving pseudopotential
 library. For details of the construction and testing of the
 pseudopotential please refer to:

 M. Schlipf, F. Gygi, Comp. Phys. Comm. 196, 36 (2015)
 http://dx.doi.org/10.1016/j.cpc.2015.05.011

 The above authors kindly ask that you include this reference in all
 publications associated to this pseudopotential.

 Please note this fully-relativistic version does not employ the
 above self-consistent procedure at the fully-relativistic level.

 -----

 This pseudopotential was produced by Peter Scherpelz for the purpose
 of performing GW calculations with spin-orbit-coupling. Please see
 the publication:

 P. Scherpelz, M. Govoni, I. Hamada, G. Galli; J. Chem. Theory Comput. (2016)
 http://dx.doi.org/10.1021/acs.jctc.6b00114

 If you use these pseudopotentials in your work, we also kindly ask
 that you cite the above publication.

 -----

 This work is licensed under the Creative Commons Attribution-ShareAlike 
 4.0 International License. To view a copy of this license, visit 
 http://creativecommons.org/licenses/by-sa/4.0/ or send a letter to 
 Creative Commons, PO Box 1866, Mountain View, CA 94042, USA.

 The SG15 library is Copyright 2015 The Regents of the University of
 California.  Further modifications of these files are Copyright 2016
 Peter Scherpelz.

    <PP_INPUTFILE>
# ATOM AND REFERENCE CONFIGURATION
# atsym  z    nc    nv    iexc   psfile
  Cu 29.00     3     4     4      upf
#
#   n    l    f        energy (Ha)
    1    0    2.00
    2    0    2.00
    2    1    6.00
    3    0    2.00
    3    1    6.00
    4    0    2.00
    3    2    9.00
#
# PSEUDOPOTENTIAL AND OPTIMIZATION
# lmax
    2
#
#   l,   rc,     ep,   ncon, nbas, qcut
    0    1.92   -4.41    5    8    6.65
    1    1.87   -2.81    5    8    7.70
    2    1.89   -0.35    5    8    8.82
#
# LOCAL POTENTIAL
# lloc, lpopt,  rc(5),   dvloc0
    4    5      1.68       0.00
#
# VANDERBILT-KLEINMAN-BYLANDER PROJECTORs
# l, nproj, debl
    0    2    4.1950
    1    2    2.7664
    2    2    0.8280
#
# MODEL CORE CHARGE
# icmod, fcfact
    0    0.00
#
# LOG DERIVATIVE ANALYSIS
# epsh1, epsh2, depsh
   -5.00    3.00    0.02
#
# OUTPUT GRID
# rlmax, drl
    6.00    0.01
#
# TEST CONFIGURATIONS
# ncnf
    0
# nvcnf
#   n    l    f
    </PP_INPUTFILE>
  </PP_INFO>
  <!--                               -->
  <!-- END OF HUMAN READABLE SECTION -->
  <!--                               -->
    <PP_HEADER
       generated="Generated using ONCVPSP code by D. R. Hamann"
       author="anonymous"
       date="150703"
       comment=""
       element="Cu"
       pseudo_type="NC"
       relativistic="full"
       is_ultrasoft="F"
       is_paw="F"
       is_coulomb="F"
       has_so="T"
       has_wfc="F"
       has_gipaw="F"
       core_correction="F"
       functional="PBE"
       z_valence="   19.00"
       total_psenergy="  -1.82376130869E+02"
       rho_cutoff="   6.01000000000E+00"
       l_max="2"
       l_local="-1"
       mesh_size="   602"
       number_of_wfc="0"
       number_of_proj="10"/>
 <PP_MESH>
   <PP_R type="real"  size=" 602" columns="8">
    0.0000    0.0100    0.0200    0.0300    0.0400    0.0500    0.0600    0.0700
    0.0800    0.0900    0.1000    0.1100    0.1200    0.1300    0.1400    0.1500
    0.1600    0.1700    0.1800    0.1900    0.2000    0.2100    0.2200    0.2300
    0.2400    0.2500    0.2600    0.2700    0.2800    0.2900    0.3000    0.3100
    0.3200    0.3300    0.3400    0.3500    0.3600    0.3700    0.3800    0.3900
    0.4000    0.4100    0.4200    0.4300    0.4400    0.4500    0.4600    0.4700
    0.4800    0.4900    0.5000    0.5100    0.5200    0.5300    0.5400    0.5500
    0.5600    0.5700    0.5800    0.5900    0.6000    0.6100    0.6200    0.6300
    0.6400    0.6500    0.6600    0.6700    0.6800    0.6900    0.7000    0.7100
    0.7200    0.7300    0.7400    0.7500    0.7600    0.7700    0.7800    0.7900
    0.8000    0.8100    0.8200    0.8300    0.8400    0.8500    0.8600    0.8700
    0.8800    0.8900    0.9000    0.9100    0.9200    0.9300    0.9400    0.9500
    0.9600    0.9700    0.9800    0.9900    1.0000    1.0100    1.0200    1.0300
    1.0400    1.0500    1.0600    1.0700    1.0800    1.0900    1.1000    1.1100
    1.1200    1.1300    1.1400    1.1500    1.1600    1.1700    1.1800    1.1900
    1.2000    1.2100    1.2200    1.2300    1.2400    1.2500    1.2600    1.2700
    1.2800    1.2900    1.3000    1.3100    1.3200    1.3300    1.3400    1.3500
    1.3600    1.3700    1.3800    1.3900    1.4000    1.4100    1.4200    1.4300
    1.4400    1.4500    1.4600    1.4700    1.4800    1.4900    1.5000    1.5100
    1.5200    1.5300    1.5400    1.5500    1.5600    1.5700    1.5800    1.5900
    1.6000    1.6100    1.6200    1.6300    1.6400    1.6500    1.6600    1.6700
    1.6800    1.6900    1.7000    1.7100    1.7200    1.7300    1.7400    1.7500
    1.7600    1.7700    1.7800    1.7900    1.8000    1.8100    1.8200    1.8300
    1.8400    1.8500    1.8600    1.8700    1.8800    1.8900    1.9000    1.9100
    1.9200    1.9300    1.9400    1.9500    1.9600    1.9700    1.9800    1.9900
    2.0000    2.0100    2.0200    2.0300    2.0400    2.0500    2.0600    2.0700
    2.0800    2.0900    2.1000    2.1100    2.1200    2.1300    2.1400    2.1500
    2.1600    2.1700    2.1800    2.1900    2.2000    2.2100    2.2200    2.2300
    2.2400    2.2500    2.2600    2.2700    2.2800    2.2900    2.3000    2.3100
    2.3200    2.3300    2.3400    2.3500    2.3600    2.3700    2.3800    2.3900
    2.4000    2.4100    2.4200    2.4300    2.4400    2.4500    2.4600    2.4700
    2.4800    2.4900    2.5000    2.5100    2.5200    2.5300    2.5400    2.5500
    2.5600    2.5700    2.5800    2.5900    2.6000    2.6100    2.6200    2.6300
    2.6400    2.6500    2.6600    2.6700    2.6800    2.6900    2.7000    2.7100
    2.7200    2.7300    2.7400    2.7500    2.7600    2.7700    2.7800    2.7900
    2.8000    2.8100    2.8200    2.8300    2.8400    2.8500    2.8600    2.8700
    2.8800    2.8900    2.9000    2.9100    2.9200    2.9300    2.9400    2.9500
    2.9600    2.9700    2.9800    2.9900    3.0000    3.0100    3.0200    3.0300
    3.0400    3.0500    3.0600    3.0700    3.0800    3.0900    3.1000    3.1100
    3.1200    3.1300    3.1400    3.1500    3.1600    3.1700    3.1800    3.1900
    3.2000    3.2100    3.2200    3.2300    3.2400    3.2500    3.2600    3.2700
    3.2800    3.2900    3.3000    3.3100    3.3200    3.3300    3.3400    3.3500
    3.3600    3.3700    3.3800    3.3900    3.4000    3.4100    3.4200    3.4300
    3.4400    3.4500    3.4600    3.4700    3.4800    3.4900    3.5000    3.5100
    3.5200    3.5300    3.5400    3.5500    3.5600    3.5700    3.5800    3.5900
    3.6000    3.6100    3.6200    3.6300    3.6400    3.6500    3.6600    3.6700
    3.6800    3.6900    3.7000    3.7100    3.7200    3.7300    3.7400    3.7500
    3.7600    3.7700    3.7800    3.7900    3.8000    3.8100    3.8200    3.8300
    3.8400    3.8500    3.8600    3.8700    3.8800    3.8900    3.9000    3.9100
    3.9200    3.9300    3.9400    3.9500    3.9600    3.9700    3.9800    3.9900
    4.0000    4.0100    4.0200    4.0300    4.0400    4.0500    4.0600    4.0700
    4.0800    4.0900    4.1000    4.1100    4.1200    4.1300    4.1400    4.1500
    4.1600    4.1700    4.1800    4.1900    4.2000    4.2100    4.2200    4.2300
    4.2400    4.2500    4.2600    4.2700    4.2800    4.2900    4.3000    4.3100
    4.3200    4.3300    4.3400    4.3500    4.3600    4.3700    4.3800    4.3900
    4.4000    4.4100    4.4200    4.4300    4.4400    4.4500    4.4600    4.4700
    4.4800    4.4900    4.5000    4.5100    4.5200    4.5300    4.5400    4.5500
    4.5600    4.5700    4.5800    4.5900    4.6000    4.6100    4.6200    4.6300
    4.6400    4.6500    4.6600    4.6700    4.6800    4.6900    4.7000    4.7100
    4.7200    4.7300    4.7400    4.7500    4.7600    4.7700    4.7800    4.7900
    4.8000    4.8100    4.8200    4.8300    4.8400    4.8500    4.8600    4.8700
    4.8800    4.8900    4.9000    4.9100    4.9200    4.9300    4.9400    4.9500
    4.9600    4.9700    4.9800    4.9900    5.0000    5.0100    5.0200    5.0300
    5.0400    5.0500    5.0600    5.0700    5.0800    5.0900    5.1000    5.1100
    5.1200    5.1300    5.1400    5.1500    5.1600    5.1700    5.1800    5.1900
    5.2000    5.2100    5.2200    5.2300    5.2400    5.2500    5.2600    5.2700
    5.2800    5.2900    5.3000    5.3100    5.3200    5.3300    5.3400    5.3500
    5.3600    5.3700    5.3800    5.3900    5.4000    5.4100    5.4200    5.4300
    5.4400    5.4500    5.4600    5.4700    5.4800    5.4900    5.5000    5.5100
    5.5200    5.5300    5.5400    5.5500    5.5600    5.5700    5.5800    5.5900
    5.6000    5.6100    5.6200    5.6300    5.6400    5.6500    5.6600    5.6700
    5.6800    5.6900    5.7000    5.7100    5.7200    5.7300    5.7400    5.7500
    5.7600    5.7700    5.7800    5.7900    5.8000    5.8100    5.8200    5.8300
    5.8400    5.8500    5.8600    5.8700    5.8800    5.8900    5.9000    5.9100
    5.9200    5.9300    5.9400    5.9500    5.9600    5.9700    5.9800    5.9900
    6.0000    6.0100
   </PP_R>
   <PP_RAB type="real"  size=" 602" columns="8">
    0.0100    0.0100    0.0100    0.0100    0.0100    0.0100    0.0100    0.0100
    0.0100    0.0100    0.0100    0.0100    0.0100    0.0100    0.0100    0.0100
    0.0100    0.0100    0.0100    0.0100    0.0100    0.0100    0.0100    0.0100
    0.0100    0.0100    0.0100    0.0100    0.0100    0.0100    0.0100    0.0100
    0.0100    0.0100    0.0100    0.0100    0.0100    0.0100    0.0100    0.0100
    0.0100    0.0100    0.0100    0.0100    0.0100    0.0100    0.0100    0.0100
    0.0100    0.0100    0.0100    0.0100    0.0100    0.0100    0.0100    0.0100
    0.0100    0.0100    0.0100    0.0100    0.0100    0.0100    0.0100    0.0100
    0.0100    0.0100    0.0100    0.0100    0.0100    0.0100    0.0100    0.0100
    0.0100    0.0100    0.0100    0.0100    0.0100    0.0100    0.0100    0.0100
    0.0100    0.0100    0.0100    0.0100    0.0100    0.0100    0.0100    0.0100
    0.0100    0.0100    0.0100    0.0100    0.0100    0.0100    0.0100    0.0100
    0.0100    0.0100    0.0100    0.0100    0.0100    0.0100    0.0100    0.0100
    0.0100    0.0100    0.0100    0.0100    0.0100    0.0100    0.0100    0.0100
    0.0100    0.0100    0.0100    0.0100    0.0100    0.0100    0.0100    0.0100
    0.0100    0.0100    0.0100    0.0100    0.0100    0.0100    0.0100    0.0100
    0.0100    0.0100    0.0100    0.0100    0.0100    0.0100    0.0100    0.0100
    0.0100    0.0100    0.0100    0.0100    0.0100    0.0100    0.0100    0.0100
    0.0100    0.0100    0.0100    0.0100    0.0100    0.0100    0.0100    0.0100
    0.0100    0.0100    0.0100    0.0100    0.0100    0.0100    0.0100    0.0100
    0.0100    0.0100    0.0100    0.0100    0.0100    0.0100    0.0100    0.0100
    0.0100    0.0100    0.0100    0.0100    0.0100    0.0100    0.0100    0.0100
    0.0100    0.0100    0.0100    0.0100    0.0100    0.0100    0.0100    0.0100
    0.0100    0.0100    0.0100    0.0100    0.0100    0.0100    0.0100    0.0100
    0.0100    0.0100    0.0100    0.0100    0.0100    0.0100    0.0100    0.0100
    0.0100    0.0100    0.0100    0.0100    0.0100    0.0100    0.0100    0.0100
    0.0100    0.0100    0.0100    0.0100    0.0100    0.0100    0.0100    0.0100
    0.0100    0.0100    0.0100    0.0100    0.0100    0.0100    0.0100    0.0100
    0.0100    0.0100    0.0100    0.0100    0.0100    0.0100    0.0100    0.0100
    0.0100    0.0100    0.0100    0.0100    0.0100    0.0100    0.0100    0.0100
    0.0100    0.0100    0.0100    0.0100    0.0100    0.0100    0.0100    0.0100
    0.0100    0.0100    0.0100    0.0100    0.0100    0.0100    0.0100    0.0100
    0.0100    0.0100    0.0100    0.0100    0.0100    0.0100    0.0100    0.0100
    0.0100    0.0100    0.0100    0.0100    0.0100    0.0100    0.0100    0.0100
    0.0100    0.0100    0.0100    0.0100    0.0100    0.0100    0.0100    0.0100
    0.0100    0.0100    0.0100    0.0100    0.0100    0.0100    0.0100    0.0100
    0.0100    0.0100    0.0100    0.0100    0.0100    0.0100    0.0100    0.0100
    0.0100    0.0100    0.0100    0.0100    0.0100    0.0100    0.0100    0.0100
    0.0100    0.0100    0.0100    0.0100    0.0100    0.0100    0.0100    0.0100
    0.0100    0.0100    0.0100    0.0100    0.0100    0.0100    0.0100    0.0100
    0.0100    0.0100    0.0100    0.0100    0.0100    0.0100    0.0100    0.0100
    0.0100    0.0100    0.0100    0.0100    0.0100    0.0100    0.0100    0.0100
    0.0100    0.0100    0.0100    0.0100    0.0100    0.0100    0.0100    0.0100
    0.0100    0.0100    0.0100    0.0100    0.0100    0.0100    0.0100    0.0100
    0.0100    0.0100    0.0100    0.0100    0.0100    0.0100    0.0100    0.0100
    0.0100    0.0100    0.0100    0.0100    0.0100    0.0100    0.0100    0.0100
    0.0100    0.0100    0.0100    0.0100    0.0100    0.0100    0.0100    0.0100
    0.0100    0.0100    0.0100    0.0100    0.0100    0.0100    0.0100    0.0100
    0.0100    0.0100    0.0100    0.0100    0.0100    0.0100    0.0100    0.0100
    0.0100    0.0100    0.0100    0.0100    0.0100    0.0100    0.0100    0.0100
    0.0100    0.0100    0.0100    0.0100    0.0100    0.0100    0.0100    0.0100
    0.0100    0.0100    0.0100    0.0100    0.0100    0.0100    0.0100    0.0100
    0.0100    0.0100    0.0100    0.0100    0.0100    0.0100    0.0100    0.0100
    0.0100    0.0100    0.0100    0.0100    0.0100    0.0100    0.0100    0.0100
    0.0100    0.0100    0.0100    0.0100    0.0100    0.0100    0.0100    0.0100
    0.0100    0.0100    0.0100    0.0100    0.0100    0.0100    0.0100    0.0100
    0.0100    0.0100    0.0100    0.0100    0.0100    0.0100    0.0100    0.0100
    0.0100    0.0100    0.0100    0.0100    0.0100    0.0100    0.0100    0.0100
    0.0100    0.0100    0.0100    0.0100    0.0100    0.0100    0.0100    0.0100
    0.0100    0.0100    0.0100    0.0100    0.0100    0.0100    0.0100    0.0100
    0.0100    0.0100    0.0100    0.0100    0.0100    0.0100    0.0100    0.0100
    0.0100    0.0100    0.0100    0.0100    0.0100    0.0100    0.0100    0.0100
    0.0100    0.0100    0.0100    0.0100    0.0100    0.0100    0.0100    0.0100
    0.0100    0.0100    0.0100    0.0100    0.0100    0.0100    0.0100    0.0100
    0.0100    0.0100    0.0100    0.0100    0.0100    0.0100    0.0100    0.0100
    0.0100    0.0100    0.0100    0.0100    0.0100    0.0100    0.0100    0.0100
    0.0100    0.0100    0.0100    0.0100    0.0100    0.0100    0.0100    0.0100
    0.0100    0.0100    0.0100    0.0100    0.0100    0.0100    0.0100    0.0100
    0.0100    0.0100    0.0100    0.0100    0.0100    0.0100    0.0100    0.0100
    0.0100    0.0100    0.0100    0.0100    0.0100    0.0100    0.0100    0.0100
    0.0100    0.0100    0.0100    0.0100    0.0100    0.0100    0.0100    0.0100
    0.0100    0.0100    0.0100    0.0100    0.0100    0.0100    0.0100    0.0100
    0.0100    0.0100    0.0100    0.0100    0.0100    0.0100    0.0100    0.0100
    0.0100    0.0100    0.0100    0.0100    0.0100    0.0100    0.0100    0.0100
    0.0100    0.0100    0.0100    0.0100    0.0100    0.0100    0.0100    0.0100
    0.0100    0.0100
   </PP_RAB>
 </PP_MESH>
  <PP_LOCAL type="real"  size=" 602" columns="4">
   -5.3425363220E+01   -5.3425080361E+01   -5.3424764880E+01   -5.3423729314E+01
   -5.3421286203E+01   -5.3416608775E+01   -5.3408829623E+01   -5.3397128536E+01
   -5.3380797644E+01   -5.3359279366E+01   -5.3332178959E+01   -5.3299257335E+01
   -5.3260411144E+01   -5.3215646667E+01   -5.3165052507E+01   -5.3108774385E+01
   -5.3046993749E+01   -5.2979910808E+01   -5.2907731836E+01   -5.2830660206E+01
   -5.2748890462E+01   -5.2662604731E+01   -5.2571970841E+01   -5.2477141626E+01
   -5.2378255011E+01   -5.2275434576E+01   -5.2168790355E+01   -5.2058419744E+01
   -5.1944408404E+01   -5.1826831088E+01   -5.1705752357E+01   -5.1581227172E+01
   -5.1453301358E+01   -5.1322011933E+01   -5.1187387270E+01   -5.1049447243E+01
   -5.0908203145E+01   -5.0763657664E+01   -5.0615804720E+01   -5.0464629319E+01
   -5.0310107464E+01   -5.0152206113E+01   -4.9990883281E+01   -4.9826088338E+01
   -4.9657762554E+01   -4.9485839966E+01   -4.9310248600E+01   -4.9130912098E+01
   -4.8947751755E+01   -4.8760688934E+01   -4.8569647918E+01   -4.8374558987E+01
   -4.8175361526E+01   -4.7972007632E+01   -4.7764464982E+01   -4.7552719746E+01
   -4.7336779297E+01   -4.7116673402E+01   -4.6892456143E+01   -4.6664205376E+01
   -4.6432022929E+01   -4.6196033152E+01   -4.5956380643E+01   -4.5713228804E+01
   -4.5466756081E+01   -4.5217153374E+01   -4.4964621197E+01   -4.4709366307E+01
   -4.4451599128E+01   -4.4191531299E+01   -4.3929373458E+01   -4.3665333527E+01
   -4.3399615341E+01   -4.3132417676E+01   -4.2863933365E+01   -4.2594348942E+01
   -4.2323844455E+01   -4.2052593370E+01   -4.1780762636E+01   -4.1508512821E+01
   -4.1235998294E+01   -4.0963367419E+01   -4.0690762748E+01   -4.0418321175E+01
   -4.0146174071E+01   -3.9874447365E+01   -3.9603261584E+01   -3.9332731852E+01
   -3.9062967846E+01   -3.8794073713E+01   -3.8526147962E+01   -3.8259283329E+01
   -3.7993566627E+01   -3.7729078587E+01   -3.7465893700E+01   -3.7204080074E+01
   -3.6943699300E+01   -3.6684806484E+01   -3.6427449950E+01   -3.6171671122E+01
   -3.5917504869E+01   -3.5664979482E+01   -3.5414116842E+01   -3.5164932735E+01
   -3.4917437254E+01   -3.4671634419E+01   -3.4427523635E+01   -3.4185099958E+01
   -3.3944354796E+01   -3.3705276448E+01   -3.3467850697E+01   -3.3232062161E+01
   -3.2997894846E+01   -3.2765332658E+01   -3.2534360770E+01   -3.2304966132E+01
   -3.2077137889E+01   -3.1850867811E+01   -3.1626152052E+01   -3.1402990131E+01
   -3.1181384776E+01   -3.0961343978E+01   -3.0742879570E+01   -3.0526006433E+01
   -3.0310743600E+01   -3.0097113555E+01   -2.9885140589E+01   -2.9674851521E+01
   -2.9466274631E+01   -2.9259438541E+01   -2.9054372352E+01   -2.8851103844E+01
   -2.8649660163E+01   -2.8450065998E+01   -2.8252342755E+01   -2.8056510933E+01
   -2.7862584523E+01   -2.7670575340E+01   -2.7480491687E+01   -2.7292335135E+01
   -2.7106106499E+01   -2.6921799582E+01   -2.6739406083E+01   -2.6558914823E+01
   -2.6380310378E+01   -2.6203577281E+01   -2.6028696958E+01   -2.5855651450E+01
   -2.5684422020E+01   -2.5514991685E+01   -2.5347343107E+01   -2.5181463247E+01
   -2.5017337951E+01   -2.4854958945E+01   -2.4694317240E+01   -2.4535408445E+01
   -2.4378228723E+01   -2.4222776847E+01   -2.4069052418E+01   -2.3917056193E+01
   -2.3766788624E+01   -2.3618250932E+01   -2.3471441663E+01   -2.3326360809E+01
   -2.3183002667E+01   -2.3041364315E+01   -2.2901434225E+01   -2.2763205031E+01
   -2.2626658818E+01   -2.2491782195E+01   -2.2358552686E+01   -2.2226951493E+01
   -2.2096953398E+01   -2.1968535881E+01   -2.1841671415E+01   -2.1716334241E+01
   -2.1592495393E+01   -2.1470126605E+01   -2.1349198326E+01   -2.1229680847E+01
   -2.1111544704E+01   -2.0994760061E+01   -2.0879297981E+01   -2.0765129960E+01
   -2.0652227816E+01   -2.0540565865E+01   -2.0430116766E+01   -2.0320858724E+01
   -2.0212766178E+01   -2.0105820483E+01   -2.0000000215E+01   -1.9895287674E+01
   -1.9791665732E+01   -1.9689117206E+01   -1.9587626326E+01   -1.9487176608E+01
   -1.9387752357E+01   -1.9289337006E+01   -1.9191915796E+01   -1.9095473732E+01
   -1.8999996038E+01   -1.8905468673E+01   -1.8811876824E+01   -1.8719207369E+01
   -1.8627446296E+01   -1.8536580486E+01   -1.8446597039E+01   -1.8357482720E+01
   -1.8269225561E+01   -1.8181812762E+01   -1.8095232551E+01   -1.8009473138E+01
   -1.7924522524E+01   -1.7840369839E+01   -1.7757003444E+01   -1.7674412603E+01
   -1.7592586668E+01   -1.7511514590E+01   -1.7431186542E+01   -1.7351591993E+01
   -1.7272720982E+01   -1.7194563975E+01   -1.7117110772E+01   -1.7040352392E+01
   -1.6964279428E+01   -1.6888882455E+01   -1.6814152938E+01   -1.6740081714E+01
   -1.6666660205E+01   -1.6593880148E+01   -1.6521732689E+01   -1.6450210008E+01
   -1.6379304043E+01   -1.6309006430E+01   -1.6239309850E+01   -1.6170206450E+01
   -1.6101688502E+01   -1.6033748960E+01   -1.5966380257E+01   -1.5899575235E+01
   -1.5833327110E+01   -1.5767628604E+01   -1.5702473061E+01   -1.5637853959E+01
   -1.5573764308E+01   -1.5510197895E+01   -1.5447148453E+01   -1.5384609285E+01
   -1.5322574558E+01   -1.5261038265E+01   -1.5199993998E+01   -1.5139436249E+01
   -1.5079359274E+01   -1.5019756952E+01   -1.4960624048E+01   -1.4901955084E+01
   -1.4843744222E+01   -1.4785986456E+01   -1.4728676573E+01   -1.4671809017E+01
   -1.4615378967E+01   -1.4559381476E+01   -1.4503811270E+01   -1.4448663669E+01
   -1.4393933995E+01   -1.4339617256E+01   -1.4285708873E+01   -1.4232204435E+01
   -1.4179099238E+01   -1.4126388763E+01   -1.4074068869E+01   -1.4022135135E+01
   -1.3970583078E+01   -1.3919408814E+01   -1.3868608203E+01   -1.3818176800E+01
   -1.3768110941E+01   -1.3718406690E+01   -1.3669059881E+01   -1.3620066798E+01
   -1.3571423786E+01   -1.3523126967E+01   -1.3475172545E+01   -1.3427557136E+01
   -1.3380277151E+01   -1.3333328714E+01   -1.3286708681E+01   -1.3240413636E+01
   -1.3194439983E+01   -1.3148784435E+01   -1.3103443859E+01   -1.3058414957E+01
   -1.3013694271E+01   -1.2969278942E+01   -1.2925165859E+01   -1.2881351729E+01
   -1.2837833608E+01   -1.2794608639E+01   -1.2751673826E+01   -1.2709026003E+01
   -1.2666662587E+01   -1.2624580750E+01   -1.2582777521E+01   -1.2541250152E+01
   -1.2499996082E+01   -1.2459012616E+01   -1.2418296821E+01   -1.2377846326E+01
   -1.2337658587E+01   -1.2297730968E+01   -1.2258060799E+01   -1.2218645824E+01
   -1.2179483595E+01   -1.2140571521E+01   -1.2101907233E+01   -1.2063488515E+01
   -1.2025313032E+01   -1.1987378252E+01   -1.1949682066E+01   -1.1912222301E+01
   -1.1874996730E+01   -1.1838002891E+01   -1.1801238894E+01   -1.1764702617E+01
   -1.1728391897E+01   -1.1692304468E+01   -1.1656438502E+01   -1.1620791975E+01
   -1.1585362798E+01   -1.1550148867E+01   -1.1515148421E+01   -1.1480359531E+01
   -1.1445780188E+01   -1.1411408418E+01   -1.1377242534E+01   -1.1343280694E+01
   -1.1309520978E+01   -1.1275961513E+01   -1.1242600689E+01   -1.1209436751E+01
   -1.1176467871E+01   -1.1143692250E+01   -1.1111108359E+01   -1.1078714528E+01
   -1.1046509027E+01   -1.1014490101E+01   -1.0982656314E+01   -1.0951006069E+01
   -1.0919537746E+01   -1.0888249609E+01   -1.0857140315E+01   -1.0826208342E+01
   -1.0795452172E+01   -1.0764870095E+01   -1.0734460836E+01   -1.0704222956E+01
   -1.0674155006E+01   -1.0644255391E+01   -1.0614522801E+01   -1.0584955908E+01
   -1.0555553330E+01   -1.0526313595E+01   -1.0497235334E+01   -1.0468317336E+01
   -1.0439558282E+01   -1.0410956830E+01   -1.0382511534E+01   -1.0354221298E+01
   -1.0326084867E+01   -1.0298100984E+01   -1.0270268255E+01   -1.0242585559E+01
   -1.0215051744E+01   -1.0187665613E+01   -1.0160425910E+01   -1.0133331390E+01
   -1.0106381035E+01   -1.0079573702E+01   -1.0052908249E+01   -1.0026383389E+01
   -9.9999981403E+00   -9.9737514436E+00   -9.9476422102E+00   -9.9216692995E+00
   -9.8958315688E+00   -9.8701281007E+00   -9.8445578575E+00   -9.8191198013E+00
   -9.7938127755E+00   -9.7686358438E+00   -9.7435880672E+00   -9.7186684562E+00
   -9.6938760115E+00   -9.6692096039E+00   -9.6446684413E+00   -9.6202515804E+00
   -9.5959580777E+00   -9.5717869321E+00   -9.5477371692E+00   -9.5238079930E+00
   -9.4999985044E+00   -9.4763078037E+00   -9.4527348978E+00   -9.4292789408E+00
   -9.4059391396E+00   -9.3827146367E+00   -9.3596045746E+00   -9.3366079770E+00
   -9.3137241008E+00   -9.2909521632E+00   -9.2682913464E+00   -9.2457408331E+00
   -9.2232996720E+00   -9.2009671981E+00   -9.1787426467E+00   -9.1566252383E+00
   -9.1346141934E+00   -9.1127085931E+00   -9.0909078275E+00   -9.0692111578E+00
   -9.0476178410E+00   -9.0261271339E+00   -9.0047381560E+00   -8.9834503314E+00
   -8.9622629549E+00   -8.9411753178E+00   -8.9201867118E+00   -8.8992963007E+00
   -8.8785035229E+00   -8.8578077133E+00   -8.8372081966E+00   -8.8167042972E+00
   -8.7962952294E+00   -8.7759804269E+00   -8.7557592716E+00   -8.7356311194E+00
   -8.7155953263E+00   -8.6956511630E+00   -8.6757980405E+00   -8.6560353936E+00
   -8.6363626083E+00   -8.6167790704E+00   -8.5972841131E+00   -8.5778771081E+00
   -8.5585575482E+00   -8.5393248477E+00   -8.5201784213E+00   -8.5011176704E+00
   -8.4821419126E+00   -8.4632507021E+00   -8.4444434809E+00   -8.4257196908E+00
   -8.4070787736E+00   -8.3885200795E+00   -8.3700431281E+00   -8.3516474199E+00
   -8.3333324229E+00   -8.3150976047E+00   -8.2969423950E+00   -8.2788662241E+00
   -8.2608686677E+00   -8.2429492186E+00   -8.2251073694E+00   -8.2073426128E+00
   -8.1896543447E+00   -8.1720421518E+00   -8.1545055720E+00   -8.1370441216E+00
   -8.1196573169E+00   -8.1023446434E+00   -8.0851055686E+00   -8.0679397164E+00
   -8.0508466255E+00   -8.0338258348E+00   -8.0168768832E+00   -7.9999992372E+00
   -7.9831924798E+00   -7.9664562126E+00   -7.9497899960E+00   -7.9331933904E+00
   -7.9166659560E+00   -7.9002071500E+00   -7.8838166487E+00   -7.8674940390E+00
   -7.8512389017E+00   -7.8350508177E+00   -7.8189293475E+00   -7.8028740081E+00
   -7.7868844870E+00   -7.7709603847E+00   -7.7551013014E+00   -7.7393068374E+00
   -7.7235765554E+00   -7.7079100318E+00   -7.6923069533E+00   -7.6767669390E+00
   -7.6612896079E+00   -7.6458745788E+00   -7.6305214236E+00   -7.6152297599E+00
   -7.5999992805E+00   -7.5848296223E+00   -7.5697204220E+00   -7.5546713162E+00
   -7.5396818926E+00   -7.5247517929E+00   -7.5098807226E+00   -7.4950683354E+00
   -7.4803142849E+00   -7.4656182248E+00   -7.4509797649E+00   -7.4363985546E+00
   -7.4218743185E+00   -7.4074067264E+00   -7.3929954481E+00   -7.3786401533E+00
   -7.3643404802E+00   -7.3500960704E+00   -7.3359066736E+00   -7.3217719750E+00
   -7.3076916596E+00   -7.2936654127E+00   -7.2796929062E+00   -7.2657737604E+00
   -7.2519077549E+00   -7.2380945895E+00   -7.2243339642E+00   -7.2106255787E+00
   -7.1969691329E+00   -7.1833642469E+00   -7.1698107008E+00   -7.1563082198E+00
   -7.1428565178E+00   -7.1294553084E+00   -7.1161043057E+00   -7.1028031749E+00
   -7.0895516438E+00   -7.0763494810E+00   -7.0631964136E+00   -7.0500921687E+00
   -7.0370364736E+00   -7.0240290441E+00   -7.0110695445E+00   -6.9981577900E+00
   -6.9852935206E+00   -6.9724764761E+00   -6.9597063964E+00   -6.9469830214E+00
   -6.9343060365E+00   -6.9216752122E+00   -6.9090903317E+00   -6.8965511470E+00
   -6.8840574100E+00   -6.8716088728E+00   -6.8592052817E+00   -6.8468463180E+00
   -6.8345318222E+00   -6.8222615576E+00   -6.8100352878E+00   -6.7978527765E+00
   -6.7857137871E+00   -6.7736180488E+00   -6.7615653167E+00   -6.7495554125E+00
   -6.7375881109E+00   -6.7256631863E+00   -6.7137804133E+00   -6.7019395665E+00
   -6.6901403654E+00   -6.6783826221E+00   -6.6666661462E+00   -6.6549907228E+00
   -6.6433561369E+00   -6.6317621735E+00   -6.6202086179E+00   -6.6086951866E+00
   -6.5972217329E+00   -6.5857880606E+00   -6.5743939648E+00   -6.5630392407E+00
   -6.5517236833E+00   -6.5404470877E+00   -6.5292091743E+00   -6.5180098218E+00
   -6.5068488351E+00   -6.4957260190E+00   -6.4846411779E+00   -6.4735941166E+00
   -6.4625846378E+00   -6.4516124767E+00   -6.4406775183E+00   -6.4297795763E+00
   -6.4189184644E+00   -6.4080939965E+00   -6.3973059862E+00   -6.3865542472E+00
   -6.3758385240E+00   -6.3651587054E+00   -6.3545146163E+00   -6.3439060789E+00
   -6.3333329158E+00   -6.3227949493E+00
  </PP_LOCAL>
 <PP_NONLOCAL>
   <PP_BETA.1
       type="real"
       size=" 602"
       columns="4"
       index="1"
       angular_momentum="0"
       cutoff_radius_index=" 196"
       cutoff_radius="    1.9500000000E+00" >
    0.0000000000E+00   -4.4310106489E-02   -8.8566803809E-02   -1.3271679443E-01
   -1.7670700365E-01   -2.2048468997E-01   -2.6399755412E-01   -3.0719384648E-01
   -3.5002247224E-01   -3.9243309429E-01   -4.3437623302E-01   -4.7580336303E-01
   -5.1666700624E-01   -5.5692082109E-01   -5.9651968759E-01   -6.3541978795E-01
   -6.7357868248E-01   -7.1095538063E-01   -7.4751040695E-01   -7.8320586184E-01
   -8.1800547692E-01   -8.5187466500E-01   -8.8478056447E-01   -9.1669207831E-01
   -9.4757990743E-01   -9.7741657858E-01   -1.0061764669E+00   -1.0338358130E+00
   -1.0603727348E+00   -1.0857672347E+00   -1.1100012012E+00   -1.1330584061E+00
   -1.1549244975E+00   -1.1755869880E+00   -1.1950352393E+00   -1.2132604426E+00
   -1.2302555959E+00   -1.2460154779E+00   -1.2605366191E+00   -1.2738172697E+00
   -1.2858573661E+00   -1.2966584947E+00   -1.3062238541E+00   -1.3145582157E+00
   -1.3216678834E+00   -1.3275606519E+00   -1.3322457649E+00   -1.3357338722E+00
   -1.3380369876E+00   -1.3391684467E+00   -1.3391428609E+00   -1.3379760785E+00
   -1.3356851456E+00   -1.3322882559E+00   -1.3278047196E+00   -1.3222549208E+00
   -1.3156602740E+00   -1.3080431969E+00   -1.2994270597E+00   -1.2898361632E+00
   -1.2792956921E+00   -1.2678316846E+00   -1.2554710082E+00   -1.2422413035E+00
   -1.2281709757E+00   -1.2132891549E+00   -1.1976256504E+00   -1.1812109365E+00