<UPF version="2.0.1">
  <PP_INFO>

 This pseudopotential file has been produced using the code
 ONCVPSP  (Optimized Norm-Conservinng Vanderbilt PSeudopotential)
 fully-relativistic version 4.0.1 06/20/2107 by D. R. Hamann
 The code is available through a link at URL www.mat-simresearch.com.
 Documentation with the package provides a full discription of the
 input data below.


 While it is not required under the terms of the GNU GPL, it is
 suggested that you cite D. R. Hamann, Phys. Rev. B 88, 085117 (2013)
 in any publication using these pseudopotentials.

    <PP_INPUTFILE>
# ATOM AND REFERENCE CONFIGURATION
# atsym  z   nc   nv     iexc    psfile
  F  9.00    1    2       4      upf
#
#   n    l    f        energy (Ha)
    1    0    2.00
    2    0    2.00
    2    1    5.00
#
# PSEUDOPOTENTIAL AND OPTIMIZATION
# lmax
    1
#
#   l,   rc,     ep,   ncon, nbas, qcut
    0   1.58000  -1.10000    5    8   8.73000
    1   1.66000  -0.41000    5    8   8.70000
#
# LOCAL POTENTIAL
# lloc, lpopt,  rc(5),   dvloc0
    4    5   0.97000      0.00000
#
# VANDERBILT-KLEINMAN-BYLANDER PROJECTORs
# l, nproj, debl
    0    2   1.51120
    1    2   1.53090
#
# MODEL CORE CHARGE
# icmod, fcfact, rcfact
    0   0.00000   0.00000
#
# LOG DERIVATIVE ANALYSIS
# epsh1, epsh2, depsh
   -5.00    3.00    0.02
#
# OUTPUT GRID
# rlmax, drl
    6.00    0.01
#
# TEST CONFIGURATIONS
# ncnf
    0
# nvcnf
#   n    l    f
    </PP_INPUTFILE>
  </PP_INFO>
  <!--                               -->
  <!-- END OF HUMAN READABLE SECTION -->
  <!--                               -->
    <PP_HEADER
       generated="Generated using ONCVPSP code by D. R. Hamann"
       author="anonymous"
       date="220620"
       comment=""
       element="F "
       pseudo_type="NC"
       relativistic="full"
       is_ultrasoft="F"
       is_paw="F"
       is_coulomb="F"
       has_so="T"
       has_wfc="F"
       has_gipaw="F"
       core_correction="F"
       functional="PBE"
       z_valence="    7.00"
       total_psenergy="  -4.74652962545E+01"
       rho_cutoff="   8.31000000000E+00"
       l_max="1"
       l_local="-1"
       mesh_size="   832"
       number_of_wfc="3"
       number_of_proj="6"/>
 <PP_MESH>
   <PP_R type="real"  size=" 832" columns="8">
    0.0000    0.0100    0.0200    0.0300    0.0400    0.0500    0.0600    0.0700
    0.0800    0.0900    0.1000    0.1100    0.1200    0.1300    0.1400    0.1500
    0.1600    0.1700    0.1800    0.1900    0.2000    0.2100    0.2200    0.2300
    0.2400    0.2500    0.2600    0.2700    0.2800    0.2900    0.3000    0.3100
    0.3200    0.3300    0.3400    0.3500    0.3600    0.3700    0.3800    0.3900
    0.4000    0.4100    0.4200    0.4300    0.4400    0.4500    0.4600    0.4700
    0.4800    0.4900    0.5000    0.5100    0.5200    0.5300    0.5400    0.5500
    0.5600    0.5700    0.5800    0.5900    0.6000    0.6100    0.6200    0.6300
    0.6400    0.6500    0.6600    0.6700    0.6800    0.6900    0.7000    0.7100
    0.7200    0.7300    0.7400    0.7500    0.7600    0.7700    0.7800    0.7900
    0.8000    0.8100    0.8200    0.8300    0.8400    0.8500    0.8600    0.8700
    0.8800    0.8900    0.9000    0.9100    0.9200    0.9300    0.9400    0.9500
    0.9600    0.9700    0.9800    0.9900    1.0000    1.0100    1.0200    1.0300
    1.0400    1.0500    1.0600    1.0700    1.0800    1.0900    1.1000    1.1100
    1.1200    1.1300    1.1400    1.1500    1.1600    1.1700    1.1800    1.1900
    1.2000    1.2100    1.2200    1.2300    1.2400    1.2500    1.2600    1.2700
    1.2800    1.2900    1.3000    1.3100    1.3200    1.3300    1.3400    1.3500
    1.3600    1.3700    1.3800    1.3900    1.4000    1.4100    1.4200    1.4300
    1.4400    1.4500    1.4600    1.4700    1.4800    1.4900    1.5000    1.5100
    1.5200    1.5300    1.5400    1.5500    1.5600    1.5700    1.5800    1.5900
    1.6000    1.6100    1.6200    1.6300    1.6400    1.6500    1.6600    1.6700
    1.6800    1.6900    1.7000    1.7100    1.7200    1.7300    1.7400    1.7500
    1.7600    1.7700    1.7800    1.7900    1.8000    1.8100    1.8200    1.8300
    1.8400    1.8500    1.8600    1.8700    1.8800    1.8900    1.9000    1.9100
    1.9200    1.9300    1.9400    1.9500    1.9600    1.9700    1.9800    1.9900
    2.0000    2.0100    2.0200    2.0300    2.0400    2.0500    2.0600    2.0700
    2.0800    2.0900    2.1000    2.1100    2.1200    2.1300    2.1400    2.1500
    2.1600    2.1700    2.1800    2.1900    2.2000    2.2100    2.2200    2.2300
    2.2400    2.2500    2.2600    2.2700    2.2800    2.2900    2.3000    2.3100
    2.3200    2.3300    2.3400    2.3500    2.3600    2.3700    2.3800    2.3900
    2.4000    2.4100    2.4200    2.4300    2.4400    2.4500    2.4600    2.4700
    2.4800    2.4900    2.5000    2.5100    2.5200    2.5300    2.5400    2.5500
    2.5600    2.5700    2.5800    2.5900    2.6000    2.6100    2.6200    2.6300
    2.6400    2.6500    2.6600    2.6700    2.6800    2.6900    2.7000    2.7100
    2.7200    2.7300    2.7400    2.7500    2.7600    2.7700    2.7800    2.7900
    2.8000    2.8100    2.8200    2.8300    2.8400    2.8500    2.8600    2.8700
    2.8800    2.8900    2.9000    2.9100    2.9200    2.9300    2.9400    2.9500
    2.9600    2.9700    2.9800    2.9900    3.0000    3.0100    3.0200    3.0300
    3.0400    3.0500    3.0600    3.0700    3.0800    3.0900    3.1000    3.1100
    3.1200    3.1300    3.1400    3.1500    3.1600    3.1700    3.1800    3.1900
    3.2000    3.2100    3.2200    3.2300    3.2400    3.2500    3.2600    3.2700
    3.2800    3.2900    3.3000    3.3100    3.3200    3.3300    3.3400    3.3500
    3.3600    3.3700    3.3800    3.3900    3.4000    3.4100    3.4200    3.4300
    3.4400    3.4500    3.4600    3.4700    3.4800    3.4900    3.5000    3.5100
    3.5200    3.5300    3.5400    3.5500    3.5600    3.5700    3.5800    3.5900
    3.6000    3.6100    3.6200    3.6300    3.6400    3.6500    3.6600    3.6700
    3.6800    3.6900    3.7000    3.7100    3.7200    3.7300    3.7400    3.7500
    3.7600    3.7700    3.7800    3.7900    3.8000    3.8100    3.8200    3.8300
    3.8400    3.8500    3.8600    3.8700    3.8800    3.8900    3.9000    3.9100
    3.9200    3.9300    3.9400    3.9500    3.9600    3.9700    3.9800    3.9900
    4.0000    4.0100    4.0200    4.0300    4.0400    4.0500    4.0600    4.0700
    4.0800    4.0900    4.1000    4.1100    4.1200    4.1300    4.1400    4.1500
    4.1600    4.1700    4.1800    4.1900    4.2000    4.2100    4.2200    4.2300
    4.2400    4.2500    4.2600    4.2700    4.2800    4.2900    4.3000    4.3100
    4.3200    4.3300    4.3400    4.3500    4.3600    4.3700    4.3800    4.3900
    4.4000    4.4100    4.4200    4.4300    4.4400    4.4500    4.4600    4.4700
    4.4800    4.4900    4.5000    4.5100    4.5200    4.5300    4.5400    4.5500
    4.5600    4.5700    4.5800    4.5900    4.6000    4.6100    4.6200    4.6300
    4.6400    4.6500    4.6600    4.6700    4.6800    4.6900    4.7000    4.7100
    4.7200    4.7300    4.7400    4.7500    4.7600    4.7700    4.7800    4.7900
    4.8000    4.8100    4.8200    4.8300    4.8400    4.8500    4.8600    4.8700
    4.8800    4.8900    4.9000    4.9100    4.9200    4.9300    4.9400    4.9500
    4.9600    4.9700    4.9800    4.9900    5.0000    5.0100    5.0200    5.0300
    5.0400    5.0500    5.0600    5.0700    5.0800    5.0900    5.1000    5.1100
    5.1200    5.1300    5.1400    5.1500    5.1600    5.1700    5.1800    5.1900
    5.2000    5.2100    5.2200    5.2300    5.2400    5.2500    5.2600    5.2700
    5.2800    5.2900    5.3000    5.3100    5.3200    5.3300    5.3400    5.3500
    5.3600    5.3700    5.3800    5.3900    5.4000    5.4100    5.4200    5.4300
    5.4400    5.4500    5.4600    5.4700    5.4800    5.4900    5.5000    5.5100
    5.5200    5.5300    5.5400    5.5500    5.5600    5.5700    5.5800    5.5900
    5.6000    5.6100    5.6200    5.6300    5.6400    5.6500    5.6600    5.6700
    5.6800    5.6900    5.7000    5.7100    5.7200    5.7300    5.7400    5.7500
    5.7600    5.7700    5.7800    5.7900    5.8000    5.8100    5.8200    5.8300
    5.8400    5.8500    5.8600    5.8700    5.8800    5.8900    5.9000    5.9100
    5.9200    5.9300    5.9400    5.9500    5.9600    5.9700    5.9800    5.9900
    6.0000    6.0100    6.0200    6.0300    6.0400    6.0500    6.0600    6.0700
    6.0800    6.0900    6.1000    6.1100    6.1200    6.1300    6.1400    6.1500
    6.1600    6.1700    6.1800    6.1900    6.2000    6.2100    6.2200    6.2300
    6.2400    6.2500    6.2600    6.2700    6.2800    6.2900    6.3000    6.3100
    6.3200    6.3300    6.3400    6.3500    6.3600    6.3700    6.3800    6.3900
    6.4000    6.4100    6.4200    6.4300    6.4400    6.4500    6.4600    6.4700
    6.4800    6.4900    6.5000    6.5100    6.5200    6.5300    6.5400    6.5500
    6.5600    6.5700    6.5800    6.5900    6.6000    6.6100    6.6200    6.6300
    6.6400    6.6500    6.6600    6.6700    6.6800    6.6900    6.7000    6.7100
    6.7200    6.7300    6.7400    6.7500    6.7600    6.7700    6.7800    6.7900
    6.8000    6.8100    6.8200    6.8300    6.8400    6.8500    6.8600    6.8700
    6.8800    6.8900    6.9000    6.9100    6.9200    6.9300    6.9400    6.9500
    6.9600    6.9700    6.9800    6.9900    7.0000    7.0100    7.0200    7.0300
    7.0400    7.0500    7.0600    7.0700    7.0800    7.0900    7.1000    7.1100
    7.1200    7.1300    7.1400    7.1500    7.1600    7.1700    7.1800    7.1900
    7.2000    7.2100    7.2200    7.2300    7.2400    7.2500    7.2600    7.2700
    7.2800    7.2900    7.3000    7.3100    7.3200    7.3300    7.3400    7.3500
    7.3600    7.3700    7.3800    7.3900    7.4000    7.4100    7.4200    7.4300
    7.4400    7.4500    7.4600    7.4700    7.4800    7.4900    7.5000    7.5100
    7.5200    7.5300    7.5400    7.5500    7.5600    7.5700    7.5800    7.5900
    7.6000    7.6100    7.6200    7.6300    7.6400    7.6500    7.6600    7.6700
    7.6800    7.6900    7.7000    7.7100    7.7200    7.7300    7.7400    7.7500
    7.7600    7.7700    7.7800    7.7900    7.8000    7.8100    7.8200    7.8300
    7.8400    7.8500    7.8600    7.8700    7.8800    7.8900    7.9000    7.9100
    7.9200    7.9300    7.9400    7.9500    7.9600    7.9700    7.9800    7.9900
    8.0000    8.0100    8.0200    8.0300    8.0400    8.0500    8.0600    8.0700
    8.0800    8.0900    8.1000    8.1100    8.1200    8.1300    8.1400    8.1500
    8.1600    8.1700    8.1800    8.1900    8.2000    8.2100    8.2200    8.2300
    8.2400    8.2500    8.2600    8.2700    8.2800    8.2900    8.3000    8.3100
   </PP_R>
   <PP_RAB type="real"  size=" 832" columns="8">
    0.0100    0.0100    0.0100    0.0100    0.0100    0.0100    0.0100    0.0100
    0.0100    0.0100    0.0100    0.0100    0.0100    0.0100    0.0100    0.0100
    0.0100    0.0100    0.0100    0.0100    0.0100    0.0100    0.0100    0.0100
    0.0100    0.0100    0.0100    0.0100    0.0100    0.0100    0.0100    0.0100
    0.0100    0.0100    0.0100    0.0100    0.0100    0.0100    0.0100    0.0100
    0.0100    0.0100    0.0100    0.0100    0.0100    0.0100    0.0100    0.0100
    0.0100    0.0100    0.0100    0.0100    0.0100    0.0100    0.0100    0.0100
    0.0100    0.0100    0.0100    0.0100    0.0100    0.0100    0.0100    0.0100
    0.0100    0.0100    0.0100    0.0100    0.0100    0.0100    0.0100    0.0100
    0.0100    0.0100    0.0100    0.0100    0.0100    0.0100    0.0100    0.0100
    0.0100    0.0100    0.0100    0.0100    0.0100    0.0100    0.0100    0.0100
    0.0100    0.0100    0.0100    0.0100    0.0100    0.0100    0.0100    0.0100
    0.0100    0.0100    0.0100    0.0100    0.0100    0.0100    0.0100    0.0100
    0.0100    0.0100    0.0100    0.0100    0.0100    0.0100    0.0100    0.0100
    0.0100    0.0100    0.0100    0.0100    0.0100    0.0100    0.0100    0.0100
    0.0100    0.0100    0.0100    0.0100    0.0100    0.0100    0.0100    0.0100
    0.0100    0.0100    0.0100    0.0100    0.0100    0.0100    0.0100    0.0100
    0.0100    0.0100    0.0100    0.0100    0.0100    0.0100    0.0100    0.0100
    0.0100    0.0100    0.0100    0.0100    0.0100    0.0100    0.0100    0.0100
    0.0100    0.0100    0.0100    0.0100    0.0100    0.0100    0.0100    0.0100
    0.0100    0.0100    0.0100    0.0100    0.0100    0.0100    0.0100    0.0100
    0.0100    0.0100    0.0100    0.0100    0.0100    0.0100    0.0100    0.0100
    0.0100    0.0100    0.0100    0.0100    0.0100    0.0100    0.0100    0.0100
    0.0100    0.0100    0.0100    0.0100    0.0100    0.0100    0.0100    0.0100
    0.0100    0.0100    0.0100    0.0100    0.0100    0.0100    0.0100    0.0100
    0.0100    0.0100    0.0100    0.0100    0.0100    0.0100    0.0100    0.0100
    0.0100    0.0100    0.0100    0.0100    0.0100    0.0100    0.0100    0.0100
    0.0100    0.0100    0.0100    0.0100    0.0100    0.0100    0.0100    0.0100
    0.0100    0.0100    0.0100    0.0100    0.0100    0.0100    0.0100    0.0100
    0.0100    0.0100    0.0100    0.0100    0.0100    0.0100    0.0100    0.0100
    0.0100    0.0100    0.0100    0.0100    0.0100    0.0100    0.0100    0.0100
    0.0100    0.0100    0.0100    0.0100    0.0100    0.0100    0.0100    0.0100
    0.0100    0.0100    0.0100    0.0100    0.0100    0.0100    0.0100    0.0100
    0.0100    0.0100    0.0100    0.0100    0.0100    0.0100    0.0100    0.0100
    0.0100    0.0100    0.0100    0.0100    0.0100    0.0100    0.0100    0.0100
    0.0100    0.0100    0.0100    0.0100    0.0100    0.0100    0.0100    0.0100
    0.0100    0.0100    0.0100    0.0100    0.0100    0.0100    0.0100    0.0100
    0.0100    0.0100    0.0100    0.0100    0.0100    0.0100    0.0100    0.0100
    0.0100    0.0100    0.0100    0.0100    0.0100    0.0100    0.0100    0.0100
    0.0100    0.0100    0.0100    0.0100    0.0100    0.0100    0.0100    0.0100
    0.0100    0.0100    0.0100    0.0100    0.0100    0.0100    0.0100    0.0100
    0.0100    0.0100    0.0100    0.0100    0.0100    0.0100    0.0100    0.0100
    0.0100    0.0100    0.0100    0.0100    0.0100    0.0100    0.0100    0.0100
    0.0100    0.0100    0.0100    0.0100    0.0100    0.0100    0.0100    0.0100
    0.0100    0.0100    0.0100    0.0100    0.0100    0.0100    0.0100    0.0100
    0.0100    0.0100    0.0100    0.0100    0.0100    0.0100    0.0100    0.0100
    0.0100    0.0100    0.0100    0.0100    0.0100    0.0100    0.0100    0.0100
    0.0100    0.0100    0.0100    0.0100    0.0100    0.0100    0.0100    0.0100
    0.0100    0.0100    0.0100    0.0100    0.0100    0.0100    0.0100    0.0100
    0.0100    0.0100    0.0100    0.0100    0.0100    0.0100    0.0100    0.0100
    0.0100    0.0100    0.0100    0.0100    0.0100    0.0100    0.0100    0.0100
    0.0100    0.0100    0.0100    0.0100    0.0100    0.0100    0.0100    0.0100
    0.0100    0.0100    0.0100    0.0100    0.0100    0.0100    0.0100    0.0100
    0.0100    0.0100    0.0100    0.0100    0.0100    0.0100    0.0100    0.0100
    0.0100    0.0100    0.0100    0.0100    0.0100    0.0100    0.0100    0.0100
    0.0100    0.0100    0.0100    0.0100    0.0100    0.0100    0.0100    0.0100
    0.0100    0.0100    0.0100    0.0100    0.0100    0.0100    0.0100    0.0100
    0.0100    0.0100    0.0100    0.0100    0.0100    0.0100    0.0100    0.0100
    0.0100    0.0100    0.0100    0.0100    0.0100    0.0100    0.0100    0.0100
    0.0100    0.0100    0.0100    0.0100    0.0100    0.0100    0.0100    0.0100
    0.0100    0.0100    0.0100    0.0100    0.0100    0.0100    0.0100    0.0100
    0.0100    0.0100    0.0100    0.0100    0.0100    0.0100    0.0100    0.0100
    0.0100    0.0100    0.0100    0.0100    0.0100    0.0100    0.0100    0.0100
    0.0100    0.0100    0.0100    0.0100    0.0100    0.0100    0.0100    0.0100
    0.0100    0.0100    0.0100    0.0100    0.0100    0.0100    0.0100    0.0100
    0.0100    0.0100    0.0100    0.0100    0.0100    0.0100    0.0100    0.0100
    0.0100    0.0100    0.0100    0.0100    0.0100    0.0100    0.0100    0.0100
    0.0100    0.0100    0.0100    0.0100    0.0100    0.0100    0.0100    0.0100
    0.0100    0.0100    0.0100    0.0100    0.0100    0.0100    0.0100    0.0100
    0.0100    0.0100    0.0100    0.0100    0.0100    0.0100    0.0100    0.0100
    0.0100    0.0100    0.0100    0.0100    0.0100    0.0100    0.0100    0.0100
    0.0100    0.0100    0.0100    0.0100    0.0100    0.0100    0.0100    0.0100
    0.0100    0.0100    0.0100    0.0100    0.0100    0.0100    0.0100    0.0100
    0.0100    0.0100    0.0100    0.0100    0.0100    0.0100    0.0100    0.0100
    0.0100    0.0100    0.0100    0.0100    0.0100    0.0100    0.0100    0.0100
    0.0100    0.0100    0.0100    0.0100    0.0100    0.0100    0.0100    0.0100
    0.0100    0.0100    0.0100    0.0100    0.0100    0.0100    0.0100    0.0100
    0.0100    0.0100    0.0100    0.0100    0.0100    0.0100    0.0100    0.0100
    0.0100    0.0100    0.0100    0.0100    0.0100    0.0100    0.0100    0.0100
    0.0100    0.0100    0.0100    0.0100    0.0100    0.0100    0.0100    0.0100
    0.0100    0.0100    0.0100    0.0100    0.0100    0.0100    0.0100    0.0100
    0.0100    0.0100    0.0100    0.0100    0.0100    0.0100    0.0100    0.0100
    0.0100    0.0100    0.0100    0.0100    0.0100    0.0100    0.0100    0.0100
    0.0100    0.0100    0.0100    0.0100    0.0100    0.0100    0.0100    0.0100
    0.0100    0.0100    0.0100    0.0100    0.0100    0.0100    0.0100    0.0100
    0.0100    0.0100    0.0100    0.0100    0.0100    0.0100    0.0100    0.0100
    0.0100    0.0100    0.0100    0.0100    0.0100    0.0100    0.0100    0.0100
    0.0100    0.0100    0.0100    0.0100    0.0100    0.0100    0.0100    0.0100
    0.0100    0.0100    0.0100    0.0100    0.0100    0.0100    0.0100    0.0100
    0.0100    0.0100    0.0100    0.0100    0.0100    0.0100    0.0100    0.0100
    0.0100    0.0100    0.0100    0.0100    0.0100    0.0100    0.0100    0.0100
    0.0100    0.0100    0.0100    0.0100    0.0100    0.0100    0.0100    0.0100
    0.0100    0.0100    0.0100    0.0100    0.0100    0.0100    0.0100    0.0100
    0.0100    0.0100    0.0100    0.0100    0.0100    0.0100    0.0100    0.0100
    0.0100    0.0100    0.0100    0.0100    0.0100    0.0100    0.0100    0.0100
    0.0100    0.0100    0.0100    0.0100    0.0100    0.0100    0.0100    0.0100
    0.0100    0.0100    0.0100    0.0100    0.0100    0.0100    0.0100    0.0100
    0.0100    0.0100    0.0100    0.0100    0.0100    0.0100    0.0100    0.0100
    0.0100    0.0100    0.0100    0.0100    0.0100    0.0100    0.0100    0.0100
    0.0100    0.0100    0.0100    0.0100    0.0100    0.0100    0.0100    0.0100
    0.0100    0.0100    0.0100    0.0100    0.0100    0.0100    0.0100    0.0100
    0.0100    0.0100    0.0100    0.0100    0.0100    0.0100    0.0100    0.0100
    0.0100    0.0100    0.0100    0.0100    0.0100    0.0100    0.0100    0.0100
    0.0100    0.0100    0.0100    0.0100    0.0100    0.0100    0.0100    0.0100
   </PP_RAB>
 </PP_MESH>
  <PP_LOCAL type="real"  size=" 832" columns="4">
   -3.1563584802E+01   -3.1615371354E+01   -3.1757725976E+01   -3.1926057088E+01
   -3.2066716063E+01   -3.2152274947E+01   -3.2178541184E+01   -3.2153579074E+01
   -3.2089007650E+01   -3.1995578659E+01   -3.1881693442E+01   -3.1753346207E+01
   -3.1614580183E+01   -3.1468028537E+01   -3.1315378020E+01   -3.1157715701E+01
   -3.0995767566E+01   -3.0830052458E+01   -3.0660975501E+01   -3.0488880997E+01
   -3.0314079685E+01   -3.0136860700E+01   -2.9957495059E+01   -2.9776234875E+01
   -2.9593310735E+01   -2.9408928519E+01   -2.9223266182E+01   -2.9036470673E+01
   -2.8848654949E+01   -2.8659895037E+01   -2.8470227172E+01   -2.8279645126E+01
   -2.8088098042E+01   -2.7895489157E+01   -2.7701675952E+01   -2.7506472255E+01
   -2.7309652822E+01   -2.7110960701E+01   -2.6910117497E+01   -2.6706836274E+01
   -2.6500836472E+01   -2.6291859866E+01   -2.6079686327E+01   -2.5864148025E+01
   -2.5645140818E+01   -2.5422631792E+01   -2.5196662376E+01   -2.4967346937E+01
   -2.4734867228E+01   -2.4499463506E+01   -2.4261423363E+01   -2.4021069419E+01
   -2.3778746955E+01   -2.3534812391E+01   -2.3289623251E+01   -2.3043529994E+01
   -2.2796869843E+01   -2.2549962540E+01   -2.2303107815E+01   -2.2056584291E+01
   -2.1810649495E+01   -2.1565540675E+01   -2.1321476137E+01   -2.1078656877E+01
   -2.0837268332E+01   -2.0597482102E+01   -2.0359457566E+01   -2.0123343331E+01
   -1.9889278480E+01   -1.9657393619E+01   -1.9427811720E+01   -1.9200648772E+01
   -1.8976014273E+01   -1.8754011557E+01   -1.8534738012E+01   -1.8318285175E+01
   -1.8104738744E+01   -1.7894178525E+01   -1.7686678310E+01   -1.7482305722E+01
   -1.7281122016E+01   -1.7083181863E+01   -1.6888533110E+01   -1.6697216530E+01
   -1.6509265560E+01   -1.6324706039E+01   -1.6143555935E+01   -1.5965825074E+01
   -1.5791514872E+01   -1.5620618054E+01   -1.5453118385E+01   -1.5288990390E+01
   -1.5128199077E+01   -1.4970699657E+01   -1.4816437253E+01   -1.4665346618E+01
   -1.4517351830E+01   -1.4372366001E+01   -1.4230291395E+01   -1.4091025846E+01
   -1.3954470876E+01   -1.3820532534E+01   -1.3689121237E+01   -1.3560151597E+01
   -1.3433542266E+01   -1.3309215774E+01   -1.3187098380E+01   -1.3067119923E+01
   -1.2949213672E+01   -1.2833316188E+01   -1.2719367190E+01   -1.2607309416E+01
   -1.2497088500E+01   -1.2388652850E+01   -1.2281953524E+01   -1.2176944124E+01
   -1.2073580680E+01   -1.1971821548E+01   -1.1871627304E+01   -1.1772960650E+01
   -1.1675786311E+01   -1.1580070941E+01   -1.1485783026E+01   -1.1392892790E+01
   -1.1301372094E+01   -1.1211194341E+01   -1.1122334371E+01   -1.1034768364E+01
   -1.0948473726E+01   -1.0863428984E+01   -1.0779613679E+01   -1.0697008244E+01
   -1.0615593898E+01   -1.0535352527E+01   -1.0456266576E+01   -1.0378318929E+01
   -1.0301492811E+01   -1.0225771679E+01   -1.0151139128E+01   -1.0077578804E+01
   -1.0005074327E+01   -9.9336092194E+00   -9.8631668533E+00   -9.7937304072E+00
   -9.7252828363E+00   -9.6578068566E+00   -9.5912849423E+00   -9.5256993370E+00
   -9.4610320773E+00   -9.3972650273E+00   -9.3343799249E+00   -9.2723584322E+00
   -9.2111821929E+00   -9.1508329153E+00   -9.0912924501E+00   -9.0325428332E+00
   -8.9745663686E+00   -8.9173456945E+00   -8.8608638463E+00   -8.8051043126E+00
   -8.7500511441E+00   -8.6956890727E+00   -8.6420034562E+00   -8.5889802464E+00
   -8.5366060228E+00   -8.4848679719E+00   -8.4337538707E+00   -8.3832520671E+00
   -8.3333514705E+00   -8.2840414226E+00   -8.2353115051E+00   -8.1871515315E+00
   -8.1395515631E+00   -8.0925018883E+00   -8.0459930193E+00   -8.0000156850E+00
   -7.9545608249E+00   -7.9096195835E+00   -7.8651833041E+00   -7.8212435236E+00
   -7.7777919669E+00   -7.7348205417E+00   -7.6923213337E+00   -7.6502866016E+00
   -7.6087087722E+00   -7.5675804362E+00   -7.5268943436E+00   -7.4866433996E+00
   -7.4468206602E+00   -7.4074193284E+00   -7.3684327502E+00   -7.3298544113E+00
   -7.2916779327E+00   -7.2538970679E+00   -7.2165056991E+00   -7.1794978338E+00
   -7.1428676023E+00   -7.1066092535E+00   -7.0707171529E+00   -7.0351857790E+00
   -7.0000097210E+00   -6.9651836755E+00   -6.9307024443E+00   -6.8965609316E+00
   -6.8627541415E+00   -6.8292771755E+00   -6.7961252303E+00   -6.7632935955E+00
   -6.7307776512E+00   -6.6985728658E+00   -6.6666747943E+00   -6.6350790758E+00
   -6.6037814315E+00   -6.5727776633E+00   -6.5420636514E+00   -6.5116353527E+00
   -6.4814887988E+00   -6.4516200948E+00   -6.4220254168E+00   -6.3927010112E+00
   -6.3636431924E+00   -6.3348483415E+00   -6.3063129049E+00   -6.2780333927E+00
   -6.2500063774E+00   -6.2222284922E+00   -6.1946964302E+00   -6.1674069425E+00
   -6.1403568376E+00   -6.1135429784E+00   -6.0869622848E+00   -6.0606117297E+00
   -6.0344883339E+00   -6.0085891738E+00   -5.9829113760E+00   -5.9574521135E+00
   -5.9322086084E+00   -5.9071781296E+00   -5.8823579920E+00   -5.8577455552E+00
   -5.8333382230E+00   -5.8091334421E+00   -5.7851287017E+00   -5.7613215321E+00
   -5.7377095042E+00   -5.7142902283E+00   -5.6910613539E+00   -5.6680205685E+00
   -5.6451655966E+00   -5.6224941997E+00   -5.6000041748E+00   -5.5776933541E+00
   -5.5555596042E+00   -5.5336008254E+00   -5.5118149512E+00   -5.4901999474E+00
   -5.4687538116E+00   -5.4474745725E+00   -5.4263602895E+00   -5.4054090520E+00
   -5.3846189785E+00   -5.3639882166E+00   -5.3435149422E+00   -5.3231973588E+00
   -5.3030336972E+00   -5.2830222148E+00   -5.2631611954E+00   -5.2434489483E+00
   -5.2238838082E+00   -5.2044641345E+00   -5.1851883109E+00   -5.1660547448E+00
   -5.1470618674E+00   -5.1282081326E+00   -5.1094920169E+00   -5.0909120189E+00
   -5.0724666593E+00   -5.0541544797E+00   -5.0359740429E+00   -5.0179239324E+00
   -5.0000027519E+00   -4.9822091247E+00   -4.9645416941E+00   -4.9469991221E+00
   -4.9295800899E+00   -4.9122832970E+00   -4.8951074612E+00   -4.8780513181E+00
   -4.8611136210E+00   -4.8442931402E+00   -4.8275886632E+00   -4.8109989940E+00
   -4.7945229532E+00   -4.7781593772E+00   -4.7619071185E+00   -4.7457650451E+00
   -4.7297320401E+00   -4.7138070019E+00   -4.6979888436E+00   -4.6822764927E+00
   -4.6666688912E+00   -4.6511649950E+00   -4.6357637741E+00   -4.6204642117E+00
   -4.6052653047E+00   -4.5901660630E+00   -4.5751655095E+00   -4.5602626798E+00
   -4.5454566220E+00   -4.5307463966E+00   -4.5161310763E+00   -4.5016097454E+00
   -4.4871815003E+00   -4.4728454487E+00   -4.4586007098E+00   -4.4444464140E+00
   -4.4303817026E+00   -4.4164057278E+00   -4.4025176524E+00   -4.3887166499E+00
   -4.3750019039E+00   -4.3613726082E+00   -4.3478279668E+00   -4.3343671934E+00
   -4.3209895113E+00   -4.3076941537E+00   -4.2944803628E+00   -4.2813473905E+00
   -4.2682944975E+00   -4.2553209535E+00   -4.2424260372E+00   -4.2296090361E+00
   -4.2168692459E+00   -4.2042059711E+00   -4.1916185246E+00   -4.1791062270E+00
   -4.1666684076E+00   -4.1543044033E+00   -4.1420135590E+00   -4.1297952271E+00
   -4.1176487678E+00   -4.1055735490E+00   -4.0935689455E+00   -4.0816343399E+00
   -4.0697691216E+00   -4.0579726873E+00   -4.0462444406E+00   -4.0345837919E+00
   -4.0229901586E+00   -4.0114629645E+00   -4.0000016402E+00   -3.9886056226E+00
   -3.9772743552E+00   -3.9660072878E+00   -3.9548038761E+00   -3.9436635823E+00
   -3.9325858745E+00   -3.9215702268E+00   -3.9106161190E+00   -3.8997230370E+00
   -3.8888904721E+00   -3.8781179215E+00   -3.8674048878E+00   -3.8567508791E+00
   -3.8461554090E+00   -3.8356179963E+00   -3.8251381651E+00   -3.8147154447E+00
   -3.8043493696E+00   -3.7940394792E+00   -3.7837853180E+00   -3.7735864353E+00
   -3.7634423853E+00   -3.7533527270E+00   -3.7433170241E+00   -3.7333348450E+00
   -3.7234057626E+00   -3.7135293544E+00   -3.7037052024E+00   -3.6939328928E+00
   -3.6842120165E+00   -3.6745421684E+00   -3.6649229477E+00   -3.6553539580E+00
   -3.6458348068E+00   -3.6363651057E+00   -3.6269444704E+00   -3.6175725206E+00
   -3.6082488798E+00   -3.5989731754E+00   -3.5897450387E+00   -3.5805641048E+00
   -3.5714300124E+00   -3.5623424039E+00   -3.5533009254E+00   -3.5443052265E+00
   -3.5353549604E+00   -3.5264497838E+00   -3.5175893568E+00   -3.5087733430E+00
   -3.5000014092E+00   -3.4912732257E+00   -3.4825884660E+00   -3.4739468068E+00
   -3.4653479281E+00   -3.4567915129E+00   -3.4482772476E+00   -3.4398048214E+00
   -3.4313739267E+00   -3.4229842588E+00   -3.4146355161E+00   -3.4063273999E+00
   -3.3980596143E+00   -3.3898318664E+00   -3.3816438661E+00   -3.3734953260E+00
   -3.3653859615E+00   -3.3573154908E+00   -3.3492836348E+00   -3.3412901170E+00
   -3.3333346636E+00   -3.3254170032E+00   -3.3175368673E+00   -3.3096939897E+00
   -3.3018881067E+00   -3.2941189573E+00   -3.2863862828E+00   -3.2786898268E+00
   -3.2710293356E+00   -3.2634045576E+00   -3.2558152437E+00   -3.2482611469E+00
   -3.2407420228E+00   -3.2332576291E+00   -3.2258077256E+00   -3.2183920745E+00
   -3.2110104402E+00   -3.2036625891E+00   -3.1963482897E+00   -3.1890673129E+00
   -3.1818194314E+00   -3.1746044201E+00   -3.1674220559E+00   -3.1602721177E+00
   -3.1531543864E+00   -3.1460686448E+00   -3.1390146779E+00   -3.1319922723E+00
   -3.1250012167E+00   -3.1180413017E+00   -3.1111123196E+00   -3.1042140647E+00
   -3.0973463330E+00   -3.0905089224E+00   -3.0837016325E+00   -3.0769242647E+00
   -3.0701766222E+00   -3.0634585099E+00   -3.0567697343E+00   -3.0501101037E+00
   -3.0434794279E+00   -3.0368775186E+00   -3.0303041890E+00   -3.0237592539E+00
   -3.0172425297E+00   -3.0107538344E+00   -3.0042929876E+00   -2.9978598103E+00
   -2.9914541252E+00   -2.9850757564E+00   -2.9787245296E+00   -2.9724002720E+00
   -2.9661028120E+00   -2.9598319797E+00   -2.9535876066E+00   -2.9473695256E+00
   -2.9411775710E+00   -2.9350115784E+00   -2.9288713850E+00   -2.9227568291E+00
   -2.9166677504E+00   -2.9106039902E+00   -2.9045653908E+00   -2.8985517960E+00
   -2.8925630506E+00   -2.8865990012E+00   -2.8806594951E+00   -2.8747443812E+00
   -2.8688535096E+00   -2.8629867316E+00   -2.8571438995E+00   -2.8513248672E+00
   -2.8455294894E+00   -2.8397576223E+00   -2.8340091231E+00   -2.8282838501E+00
   -2.8225816629E+00   -2.8169024221E+00   -2.8112459895E+00   -2.8056122279E+00
   -2.8000010014E+00   -2.7944121750E+00   -2.7888456148E+00   -2.7833011880E+00
   -2.7777787629E+00   -2.7722782088E+00   -2.7667993960E+00   -2.7613421959E+00
   -2.7559064808E+00   -2.7504921241E+00   -2.7450990002E+00   -2.7397269844E+00
   -2.7343759530E+00   -2.7290457833E+00   -2.7237363536E+00   -2.7184475430E+00
   -2.7131792317E+00   -2.7079313006E+00   -2.7027036319E+00   -2.6974961083E+00
   -2.6923086136E+00   -2.6871410326E+00   -2.6819932507E+00   -2.6768651543E+00
   -2.6717566309E+00   -2.6666675685E+00   -2.6615978561E+00   -2.6565473836E+00