<UPF version="2.0.1">
  <PP_INFO>

 In_ONCV_PBE_FR-1.0.upf

 This pseudopotential file has been produced using the code
 ONCVPSP  (Optimized Norm-Conservinng Vanderbilt PSeudopotential)
 fully-relativistic version 2.1.1, 03/26/2014 by D. R. Hamann
 The code is available through a link at URL www.mat-simresearch.com.
 Documentation with the package provides a full description of the
 input data below.

 While it is not required under the terms of the GNU GPL, it is
 suggested that you cite D. R. Hamann, Phys. Rev. B 88, 085117 (2013)
 in any publication using these pseudopotentials.

 -----

 This pseudopotential was produced with the SG15 1.0 and/or 1.1
 parameter sets, the Schlipf-Gygi norm-conserving pseudopotential
 library. For details of the construction and testing of the
 pseudopotential please refer to:

 M. Schlipf, F. Gygi, Comp. Phys. Comm. 196, 36 (2015)
 http://dx.doi.org/10.1016/j.cpc.2015.05.011

 The above authors kindly ask that you include this reference in all
 publications associated to this pseudopotential.

 Please note this fully-relativistic version does not employ the
 above self-consistent procedure at the fully-relativistic level.

 -----

 This pseudopotential was produced by Peter Scherpelz for the purpose
 of performing GW calculations with spin-orbit-coupling. Please see
 the publication:

 P. Scherpelz, M. Govoni, I. Hamada, G. Galli; J. Chem. Theory Comput. (2016)
 http://dx.doi.org/10.1021/acs.jctc.6b00114

 If you use these pseudopotentials in your work, we also kindly ask
 that you cite the above publication.

 -----

 This work is licensed under the Creative Commons Attribution-ShareAlike 
 4.0 International License. To view a copy of this license, visit 
 http://creativecommons.org/licenses/by-sa/4.0/ or send a letter to 
 Creative Commons, PO Box 1866, Mountain View, CA 94042, USA.

 The SG15 library is Copyright 2015 The Regents of the University of
 California.  Further modifications of these files are Copyright 2016
 Peter Scherpelz.

    <PP_INPUTFILE>
# ATOM AND REFERENCE CONFIGURATION
# atsym  z   nc   nv     iexc    psfile
  In 49.00    8    3       4      upf
#
#   n    l    f        energy (Ha)
    1    0    2.00
    2    0    2.00
    2    1    6.00
    3    0    2.00
    3    1    6.00
    3    2   10.00
    4    0    2.00
    4    1    6.00
    4    2   10.00
    5    0    2.00
    5    1    1.00
#
# PSEUDOPOTENTIAL AND OPTIMIZATION
# lmax
    2
#
#   l,   rc,     ep,   ncon, nbas, qcut
    0    3.16   -0.30    5    8    4.00
    1    3.20   -0.09    5    8    4.00
    2    2.61   -0.67    5    8    6.88
#
# LOCAL POTENTIAL
# lloc, lpopt,  rc(5),   dvloc0
    4    5      1.66       0.00
#
# VANDERBILT-KLEINMAN-BYLANDER PROJECTORs
# l, nproj, debl
    0    2    0.9939
    1    2    1.0836
    2    2    1.7145
#
# MODEL CORE CHARGE
# icmod, fcfact
    0    0.00
#
# LOG DERIVATIVE ANALYSIS
# epsh1, epsh2, depsh
   -5.00    3.00    0.02
#
# OUTPUT GRID
# rlmax, drl
    6.00    0.01
#
# TEST CONFIGURATIONS
# ncnf
    0
# nvcnf
#   n    l    f
    </PP_INPUTFILE>
  </PP_INFO>
  <!--                               -->
  <!-- END OF HUMAN READABLE SECTION -->
  <!--                               -->
    <PP_HEADER
       generated="Generated using ONCVPSP code by D. R. Hamann"
       author="anonymous"
       date="150716"
       comment=""
       element="In"
       pseudo_type="NC"
       relativistic="full"
       is_ultrasoft="F"
       is_paw="F"
       is_coulomb="F"
       has_so="T"
       has_wfc="F"
       has_gipaw="F"
       core_correction="F"
       functional="PBE"
       z_valence="   13.00"
       total_psenergy="  -5.34798951675E+01"
       rho_cutoff="   5.99000000000E+00"
       l_max="2"
       l_local="-1"
       mesh_size="   600"
       number_of_wfc="0"
       number_of_proj="10"/>
 <PP_MESH>
   <PP_R type="real"  size=" 600" columns="8">
    0.0000    0.0100    0.0200    0.0300    0.0400    0.0500    0.0600    0.0700
    0.0800    0.0900    0.1000    0.1100    0.1200    0.1300    0.1400    0.1500
    0.1600    0.1700    0.1800    0.1900    0.2000    0.2100    0.2200    0.2300
    0.2400    0.2500    0.2600    0.2700    0.2800    0.2900    0.3000    0.3100
    0.3200    0.3300    0.3400    0.3500    0.3600    0.3700    0.3800    0.3900
    0.4000    0.4100    0.4200    0.4300    0.4400    0.4500    0.4600    0.4700
    0.4800    0.4900    0.5000    0.5100    0.5200    0.5300    0.5400    0.5500
    0.5600    0.5700    0.5800    0.5900    0.6000    0.6100    0.6200    0.6300
    0.6400    0.6500    0.6600    0.6700    0.6800    0.6900    0.7000    0.7100
    0.7200    0.7300    0.7400    0.7500    0.7600    0.7700    0.7800    0.7900
    0.8000    0.8100    0.8200    0.8300    0.8400    0.8500    0.8600    0.8700
    0.8800    0.8900    0.9000    0.9100    0.9200    0.9300    0.9400    0.9500
    0.9600    0.9700    0.9800    0.9900    1.0000    1.0100    1.0200    1.0300
    1.0400    1.0500    1.0600    1.0700    1.0800    1.0900    1.1000    1.1100
    1.1200    1.1300    1.1400    1.1500    1.1600    1.1700    1.1800    1.1900
    1.2000    1.2100    1.2200    1.2300    1.2400    1.2500    1.2600    1.2700
    1.2800    1.2900    1.3000    1.3100    1.3200    1.3300    1.3400    1.3500
    1.3600    1.3700    1.3800    1.3900    1.4000    1.4100    1.4200    1.4300
    1.4400    1.4500    1.4600    1.4700    1.4800    1.4900    1.5000    1.5100
    1.5200    1.5300    1.5400    1.5500    1.5600    1.5700    1.5800    1.5900
    1.6000    1.6100    1.6200    1.6300    1.6400    1.6500    1.6600    1.6700
    1.6800    1.6900    1.7000    1.7100    1.7200    1.7300    1.7400    1.7500
    1.7600    1.7700    1.7800    1.7900    1.8000    1.8100    1.8200    1.8300
    1.8400    1.8500    1.8600    1.8700    1.8800    1.8900    1.9000    1.9100
    1.9200    1.9300    1.9400    1.9500    1.9600    1.9700    1.9800    1.9900
    2.0000    2.0100    2.0200    2.0300    2.0400    2.0500    2.0600    2.0700
    2.0800    2.0900    2.1000    2.1100    2.1200    2.1300    2.1400    2.1500
    2.1600    2.1700    2.1800    2.1900    2.2000    2.2100    2.2200    2.2300
    2.2400    2.2500    2.2600    2.2700    2.2800    2.2900    2.3000    2.3100
    2.3200    2.3300    2.3400    2.3500    2.3600    2.3700    2.3800    2.3900
    2.4000    2.4100    2.4200    2.4300    2.4400    2.4500    2.4600    2.4700
    2.4800    2.4900    2.5000    2.5100    2.5200    2.5300    2.5400    2.5500
    2.5600    2.5700    2.5800    2.5900    2.6000    2.6100    2.6200    2.6300
    2.6400    2.6500    2.6600    2.6700    2.6800    2.6900    2.7000    2.7100
    2.7200    2.7300    2.7400    2.7500    2.7600    2.7700    2.7800    2.7900
    2.8000    2.8100    2.8200    2.8300    2.8400    2.8500    2.8600    2.8700
    2.8800    2.8900    2.9000    2.9100    2.9200    2.9300    2.9400    2.9500
    2.9600    2.9700    2.9800    2.9900    3.0000    3.0100    3.0200    3.0300
    3.0400    3.0500    3.0600    3.0700    3.0800    3.0900    3.1000    3.1100
    3.1200    3.1300    3.1400    3.1500    3.1600    3.1700    3.1800    3.1900
    3.2000    3.2100    3.2200    3.2300    3.2400    3.2500    3.2600    3.2700
    3.2800    3.2900    3.3000    3.3100    3.3200    3.3300    3.3400    3.3500
    3.3600    3.3700    3.3800    3.3900    3.4000    3.4100    3.4200    3.4300
    3.4400    3.4500    3.4600    3.4700    3.4800    3.4900    3.5000    3.5100
    3.5200    3.5300    3.5400    3.5500    3.5600    3.5700    3.5800    3.5900
    3.6000    3.6100    3.6200    3.6300    3.6400    3.6500    3.6600    3.6700
    3.6800    3.6900    3.7000    3.7100    3.7200    3.7300    3.7400    3.7500
    3.7600    3.7700    3.7800    3.7900    3.8000    3.8100    3.8200    3.8300
    3.8400    3.8500    3.8600    3.8700    3.8800    3.8900    3.9000    3.9100
    3.9200    3.9300    3.9400    3.9500    3.9600    3.9700    3.9800    3.9900
    4.0000    4.0100    4.0200    4.0300    4.0400    4.0500    4.0600    4.0700
    4.0800    4.0900    4.1000    4.1100    4.1200    4.1300    4.1400    4.1500
    4.1600    4.1700    4.1800    4.1900    4.2000    4.2100    4.2200    4.2300
    4.2400    4.2500    4.2600    4.2700    4.2800    4.2900    4.3000    4.3100
    4.3200    4.3300    4.3400    4.3500    4.3600    4.3700    4.3800    4.3900
    4.4000    4.4100    4.4200    4.4300    4.4400    4.4500    4.4600    4.4700
    4.4800    4.4900    4.5000    4.5100    4.5200    4.5300    4.5400    4.5500
    4.5600    4.5700    4.5800    4.5900    4.6000    4.6100    4.6200    4.6300
    4.6400    4.6500    4.6600    4.6700    4.6800    4.6900    4.7000    4.7100
    4.7200    4.7300    4.7400    4.7500    4.7600    4.7700    4.7800    4.7900
    4.8000    4.8100    4.8200    4.8300    4.8400    4.8500    4.8600    4.8700
    4.8800    4.8900    4.9000    4.9100    4.9200    4.9300    4.9400    4.9500
    4.9600    4.9700    4.9800    4.9900    5.0000    5.0100    5.0200    5.0300
    5.0400    5.0500    5.0600    5.0700    5.0800    5.0900    5.1000    5.1100
    5.1200    5.1300    5.1400    5.1500    5.1600    5.1700    5.1800    5.1900
    5.2000    5.2100    5.2200    5.2300    5.2400    5.2500    5.2600    5.2700
    5.2800    5.2900    5.3000    5.3100    5.3200    5.3300    5.3400    5.3500
    5.3600    5.3700    5.3800    5.3900    5.4000    5.4100    5.4200    5.4300
    5.4400    5.4500    5.4600    5.4700    5.4800    5.4900    5.5000    5.5100
    5.5200    5.5300    5.5400    5.5500    5.5600    5.5700    5.5800    5.5900
    5.6000    5.6100    5.6200    5.6300    5.6400    5.6500    5.6600    5.6700
    5.6800    5.6900    5.7000    5.7100    5.7200    5.7300    5.7400    5.7500
    5.7600    5.7700    5.7800    5.7900    5.8000    5.8100    5.8200    5.8300
    5.8400    5.8500    5.8600    5.8700    5.8800    5.8900    5.9000    5.9100
    5.9200    5.9300    5.9400    5.9500    5.9600    5.9700    5.9800    5.9900
   </PP_R>
   <PP_RAB type="real"  size=" 600" columns="8">
    0.0100    0.0100    0.0100    0.0100    0.0100    0.0100    0.0100    0.0100
    0.0100    0.0100    0.0100    0.0100    0.0100    0.0100    0.0100    0.0100
    0.0100    0.0100    0.0100    0.0100    0.0100    0.0100    0.0100    0.0100
    0.0100    0.0100    0.0100    0.0100    0.0100    0.0100    0.0100    0.0100
    0.0100    0.0100    0.0100    0.0100    0.0100    0.0100    0.0100    0.0100
    0.0100    0.0100    0.0100    0.0100    0.0100    0.0100    0.0100    0.0100
    0.0100    0.0100    0.0100    0.0100    0.0100    0.0100    0.0100    0.0100
    0.0100    0.0100    0.0100    0.0100    0.0100    0.0100    0.0100    0.0100
    0.0100    0.0100    0.0100    0.0100    0.0100    0.0100    0.0100    0.0100
    0.0100    0.0100    0.0100    0.0100    0.0100    0.0100    0.0100    0.0100
    0.0100    0.0100    0.0100    0.0100    0.0100    0.0100    0.0100    0.0100
    0.0100    0.0100    0.0100    0.0100    0.0100    0.0100    0.0100    0.0100
    0.0100    0.0100    0.0100    0.0100    0.0100    0.0100    0.0100    0.0100
    0.0100    0.0100    0.0100    0.0100    0.0100    0.0100    0.0100    0.0100
    0.0100    0.0100    0.0100    0.0100    0.0100    0.0100    0.0100    0.0100
    0.0100    0.0100    0.0100    0.0100    0.0100    0.0100    0.0100    0.0100
    0.0100    0.0100    0.0100    0.0100    0.0100    0.0100    0.0100    0.0100
    0.0100    0.0100    0.0100    0.0100    0.0100    0.0100    0.0100    0.0100
    0.0100    0.0100    0.0100    0.0100    0.0100    0.0100    0.0100    0.0100
    0.0100    0.0100    0.0100    0.0100    0.0100    0.0100    0.0100    0.0100
    0.0100    0.0100    0.0100    0.0100    0.0100    0.0100    0.0100    0.0100
    0.0100    0.0100    0.0100    0.0100    0.0100    0.0100    0.0100    0.0100
    0.0100    0.0100    0.0100    0.0100    0.0100    0.0100    0.0100    0.0100
    0.0100    0.0100    0.0100    0.0100    0.0100    0.0100    0.0100    0.0100
    0.0100    0.0100    0.0100    0.0100    0.0100    0.0100    0.0100    0.0100
    0.0100    0.0100    0.0100    0.0100    0.0100    0.0100    0.0100    0.0100
    0.0100    0.0100    0.0100    0.0100    0.0100    0.0100    0.0100    0.0100
    0.0100    0.0100    0.0100    0.0100    0.0100    0.0100    0.0100    0.0100
    0.0100    0.0100    0.0100    0.0100    0.0100    0.0100    0.0100    0.0100
    0.0100    0.0100    0.0100    0.0100    0.0100    0.0100    0.0100    0.0100
    0.0100    0.0100    0.0100    0.0100    0.0100    0.0100    0.0100    0.0100
    0.0100    0.0100    0.0100    0.0100    0.0100    0.0100    0.0100    0.0100
    0.0100    0.0100    0.0100    0.0100    0.0100    0.0100    0.0100    0.0100
    0.0100    0.0100    0.0100    0.0100    0.0100    0.0100    0.0100    0.0100
    0.0100    0.0100    0.0100    0.0100    0.0100    0.0100    0.0100    0.0100
    0.0100    0.0100    0.0100    0.0100    0.0100    0.0100    0.0100    0.0100
    0.0100    0.0100    0.0100    0.0100    0.0100    0.0100    0.0100    0.0100
    0.0100    0.0100    0.0100    0.0100    0.0100    0.0100    0.0100    0.0100
    0.0100    0.0100    0.0100    0.0100    0.0100    0.0100    0.0100    0.0100
    0.0100    0.0100    0.0100    0.0100    0.0100    0.0100    0.0100    0.0100
    0.0100    0.0100    0.0100    0.0100    0.0100    0.0100    0.0100    0.0100
    0.0100    0.0100    0.0100    0.0100    0.0100    0.0100    0.0100    0.0100
    0.0100    0.0100    0.0100    0.0100    0.0100    0.0100    0.0100    0.0100
    0.0100    0.0100    0.0100    0.0100    0.0100    0.0100    0.0100    0.0100
    0.0100    0.0100    0.0100    0.0100    0.0100    0.0100    0.0100    0.0100
    0.0100    0.0100    0.0100    0.0100    0.0100    0.0100    0.0100    0.0100
    0.0100    0.0100    0.0100    0.0100    0.0100    0.0100    0.0100    0.0100
    0.0100    0.0100    0.0100    0.0100    0.0100    0.0100    0.0100    0.0100
    0.0100    0.0100    0.0100    0.0100    0.0100    0.0100    0.0100    0.0100
    0.0100    0.0100    0.0100    0.0100    0.0100    0.0100    0.0100    0.0100
    0.0100    0.0100    0.0100    0.0100    0.0100    0.0100    0.0100    0.0100
    0.0100    0.0100    0.0100    0.0100    0.0100    0.0100    0.0100    0.0100
    0.0100    0.0100    0.0100    0.0100    0.0100    0.0100    0.0100    0.0100
    0.0100    0.0100    0.0100    0.0100    0.0100    0.0100    0.0100    0.0100
    0.0100    0.0100    0.0100    0.0100    0.0100    0.0100    0.0100    0.0100
    0.0100    0.0100    0.0100    0.0100    0.0100    0.0100    0.0100    0.0100
    0.0100    0.0100    0.0100    0.0100    0.0100    0.0100    0.0100    0.0100
    0.0100    0.0100    0.0100    0.0100    0.0100    0.0100    0.0100    0.0100
    0.0100    0.0100    0.0100    0.0100    0.0100    0.0100    0.0100    0.0100
    0.0100    0.0100    0.0100    0.0100    0.0100    0.0100    0.0100    0.0100
    0.0100    0.0100    0.0100    0.0100    0.0100    0.0100    0.0100    0.0100
    0.0100    0.0100    0.0100    0.0100    0.0100    0.0100    0.0100    0.0100
    0.0100    0.0100    0.0100    0.0100    0.0100    0.0100    0.0100    0.0100
    0.0100    0.0100    0.0100    0.0100    0.0100    0.0100    0.0100    0.0100
    0.0100    0.0100    0.0100    0.0100    0.0100    0.0100    0.0100    0.0100
    0.0100    0.0100    0.0100    0.0100    0.0100    0.0100    0.0100    0.0100
    0.0100    0.0100    0.0100    0.0100    0.0100    0.0100    0.0100    0.0100
    0.0100    0.0100    0.0100    0.0100    0.0100    0.0100    0.0100    0.0100
    0.0100    0.0100    0.0100    0.0100    0.0100    0.0100    0.0100    0.0100
    0.0100    0.0100    0.0100    0.0100    0.0100    0.0100    0.0100    0.0100
    0.0100    0.0100    0.0100    0.0100    0.0100    0.0100    0.0100    0.0100
    0.0100    0.0100    0.0100    0.0100    0.0100    0.0100    0.0100    0.0100
    0.0100    0.0100    0.0100    0.0100    0.0100    0.0100    0.0100    0.0100
    0.0100    0.0100    0.0100    0.0100    0.0100    0.0100    0.0100    0.0100
    0.0100    0.0100    0.0100    0.0100    0.0100    0.0100    0.0100    0.0100
   </PP_RAB>
 </PP_MESH>
  <PP_LOCAL type="real"  size=" 600" columns="4">
   -3.3610147627E+01   -3.4626447377E+01   -3.4964031762E+01   -3.4956133101E+01
   -3.4935983711E+01   -3.4905992000E+01   -3.4867499929E+01   -3.4822235988E+01
   -3.4771562533E+01   -3.4716407424E+01   -3.4657404545E+01   -3.4595020165E+01
   -3.4529634481E+01   -3.4461591149E+01   -3.4391228000E+01   -3.4318897015E+01
   -3.4244977872E+01   -3.4169887108E+01   -3.4094083739E+01   -3.4018071455E+01
   -3.3942397038E+01   -3.3867644496E+01   -3.3794424233E+01   -3.3723356671E+01
   -3.3655049920E+01   -3.3590071471E+01   -3.3528914392E+01   -3.3471959251E+01
   -3.3419433873E+01   -3.3371373652E+01   -3.3327586118E+01   -3.3287623877E+01
   -3.3250770225E+01   -3.3216041170E+01   -3.3182205407E+01   -3.3147826377E+01
   -3.3111320615E+01   -3.3071034057E+01   -3.3025327184E+01   -3.2972664821E+01
   -3.2911701262E+01   -3.2841354529E+01   -3.2760863113E+01   -3.2669820643E+01
   -3.2568186064E+01   -3.2456269255E+01   -3.2334694259E+01   -3.2204344270E+01
   -3.2066294030E+01   -3.1921736848E+01   -3.1771911316E+01   -3.1618034495E+01
   -3.1461249197E+01   -3.1302580058E+01   -3.1142912226E+01   -3.0982979103E+01
   -3.0823363531E+01   -3.0664511125E+01   -3.0506743897E+01   -3.0350282739E+01
   -3.0195265687E+01   -3.0041766726E+01   -2.9889813370E+01   -2.9739397712E+01
   -2.9590488810E+01   -2.9443039574E+01   -2.9296991682E+01   -2.9152279333E+01
   -2.9008830700E+01   -2.8866568203E+01   -2.8725407987E+01   -2.8585258864E+01
   -2.8446020793E+01   -2.8307583378E+01   -2.8169824196E+01   -2.8032607645E+01
   -2.7895784558E+01   -2.7759192238E+01   -2.7622655434E+01   -2.7485988267E+01
   -2.7348997124E+01   -2.7211484500E+01   -2.7073253641E+01   -2.6934113790E+01
   -2.6793885758E+01   -2.6652407496E+01   -2.6509539299E+01   -2.6365168310E+01
   -2.6219212028E+01   -2.6071620572E+01   -2.5922377598E+01   -2.5771499826E+01
   -2.5619035269E+01   -2.5465060353E+01   -2.5309676156E+01   -2.5153004069E+01
   -2.4995181165E+01   -2.4836355498E+01   -2.4676682094E+01   -2.4516318255E+01
   -2.4355420193E+01   -2.4194140233E+01   -2.4032624580E+01   -2.3871011897E+01
   -2.3709432034E+01   -2.3548004464E+01   -2.3386839369E+01   -2.3226037408E+01
   -2.3065690416E+01   -2.2905881319E+01   -2.2746684314E+01   -2.2588166921E+01
   -2.2430390297E+01   -2.2273410060E+01   -2.2117275587E+01   -2.1962032475E+01
   -2.1807722632E+01   -2.1654384406E+01   -2.1502052714E+01   -2.1350760297E+01
   -2.1200537949E+01   -2.1051413734E+01   -2.0903414187E+01   -2.0756564493E+01
   -2.0610887977E+01   -2.0466406432E+01   -2.0323140651E+01   -2.0181109891E+01
   -2.0040331841E+01   -1.9900823363E+01   -1.9762599716E+01   -1.9625674602E+01
   -1.9490061033E+01   -1.9355770009E+01   -1.9222811205E+01   -1.9091193716E+01
   -1.8960923955E+01   -1.8832007811E+01   -1.8704449703E+01   -1.8578251975E+01
   -1.8453416715E+01   -1.8329943483E+01   -1.8207831172E+01   -1.8087077481E+01
   -1.7967678112E+01   -1.7849628825E+01   -1.7732922857E+01   -1.7617553452E+01
   -1.7503512342E+01   -1.7390790349E+01   -1.7279377868E+01   -1.7169263713E+01
   -1.7060437032E+01   -1.6952885151E+01   -1.6846595766E+01   -1.6741555280E+01
   -1.6637750017E+01   -1.6535165526E+01   -1.6433786868E+01   -1.6333598743E+01
   -1.6234584925E+01   -1.6136729194E+01   -1.6040013864E+01   -1.5944421649E+01
   -1.5849933095E+01   -1.5756529516E+01   -1.5664189547E+01   -1.5572891998E+01
   -1.5482616097E+01   -1.5393340086E+01   -1.5305045728E+01   -1.5217713452E+01
   -1.5131326546E+01   -1.5045867341E+01   -1.4961320067E+01   -1.4877668454E+01
   -1.4794897273E+01   -1.4712991160E+01   -1.4631935156E+01   -1.4551714364E+01
   -1.4472313949E+01   -1.4393719151E+01   -1.4315915193E+01   -1.4238887320E+01
   -1.4162620773E+01   -1.4087100911E+01   -1.4012312929E+01   -1.3938242605E+01
   -1.3864875190E+01   -1.3792197075E+01   -1.3720194058E+01   -1.3648853066E+01
   -1.3578161173E+01   -1.3508105655E+01   -1.3438675660E+01   -1.3369858614E+01
   -1.3301645848E+01   -1.3234026421E+01   -1.3166992408E+01   -1.3100535694E+01
   -1.3034648512E+01   -1.2969325823E+01   -1.2904560166E+01   -1.2840348462E+01
   -1.2776685662E+01   -1.2713568386E+01   -1.2650994247E+01   -1.2588959797E+01
   -1.2527464038E+01   -1.2466504781E+01   -1.2406080758E+01   -1.2346190950E+01
   -1.2286834071E+01   -1.2228009186E+01   -1.2169715392E+01   -1.2111951430E+01
   -1.2054715940E+01   -1.1998008058E+01   -1.1941825449E+01   -1.1886166649E+01
   -1.1831029527E+01   -1.1776411055E+01   -1.1722309387E+01   -1.1668720631E+01
   -1.1615641382E+01   -1.1563068600E+01   -1.1510997245E+01   -1.1459423484E+01
   -1.1408342626E+01   -1.1357749124E+01   -1.1307638494E+01   -1.1258004709E+01
   -1.1208841860E+01   -1.1160144708E+01   -1.1111906439E+01   -1.1064120898E+01
   -1.1016781933E+01   -1.0969882644E+01   -1.0923416519E+01   -1.0877376918E+01
   -1.0831756982E+01   -1.0786549941E+01   -1.0741749063E+01   -1.0697347636E+01
   -1.0653338761E+01   -1.0609715932E+01   -1.0566472686E+01   -1.0523602143E+01
   -1.0481098244E+01   -1.0438954875E+01   -1.0397165327E+01   -1.0355724115E+01
   -1.0314625568E+01   -1.0273863303E+01   -1.0233432437E+01   -1.0193327836E+01
   -1.0153543573E+01   -1.0114075333E+01   -1.0074918588E+01   -1.0036067998E+01
   -9.9975197081E+00   -9.9592698387E+00   -9.9213137659E+00   -9.8836479221E+00
   -9.8462689895E+00   -9.8091731532E+00   -9.7723569435E+00   -9.7358172119E+00
   -9.6995505154E+00   -9.6635534730E+00   -9.6278230757E+00   -9.5923560933E+00
   -9.5571491172E+00   -9.5221994578E+00   -9.4875041356E+00   -9.4530599054E+00
   -9.4188641693E+00   -9.3849141719E+00   -9.3512069354E+00   -9.3177398137E+00
   -9.2845103154E+00   -9.2515157411E+00   -9.2187533698E+00   -9.1862209609E+00
   -9.1539160569E+00   -9.1218359594E+00   -9.0899785514E+00   -9.0583415604E+00
   -9.0269225542E+00   -8.9957192797E+00   -8.9647297078E+00   -8.9339516644E+00
   -8.9033827693E+00   -8.8730211991E+00   -8.8428649096E+00   -8.8129117409E+00
   -8.7831597193E+00   -8.7536070090E+00   -8.7242516726E+00   -8.6950915957E+00
   -8.6661251097E+00   -8.6373503693E+00   -8.6087654601E+00   -8.5803685453E+00
   -8.5521579477E+00   -8.5241318985E+00   -8.4962885227E+00   -8.4686261800E+00
   -8.4411431904E+00   -8.4138378307E+00   -8.3867083246E+00   -8.3597531091E+00
   -8.3329705285E+00   -8.3063588756E+00   -8.2799165024E+00   -8.2536418699E+00
   -8.2275333736E+00   -8.2015892886E+00   -8.1758081260E+00   -8.1501884141E+00
   -8.1247286247E+00   -8.0994270533E+00   -8.0742824010E+00   -8.0492932481E+00
   -8.0244581445E+00   -7.9997755139E+00   -7.9752441237E+00   -7.9508625970E+00
   -7.9266295295E+00   -7.9025434475E+00   -7.8786031734E+00   -7.8548073962E+00
   -7.8311547685E+00   -7.8076439113E+00   -7.7842736907E+00   -7.7610428558E+00
   -7.7379501177E+00   -7.7149941646E+00   -7.6921739169E+00   -7.6694881820E+00
   -7.6469357344E+00   -7.6245153122E+00   -7.6022258918E+00   -7.5800663358E+00
   -7.5580354864E+00   -7.5361321124E+00   -7.5143552505E+00   -7.4927038162E+00
   -7.4711767229E+00   -7.4497727542E+00   -7.4284910098E+00   -7.4073304553E+00
   -7.3862900564E+00   -7.3653686653E+00   -7.3445653780E+00   -7.3238792309E+00
   -7.3033092376E+00   -7.2828543291E+00   -7.2625135762E+00   -7.2422860910E+00
   -7.2221709329E+00   -7.2021671162E+00   -7.1822736721E+00   -7.1624897906E+00
   -7.1428145744E+00   -7.1232471256E+00   -7.1037864244E+00   -7.0844317386E+00
   -7.0651822125E+00   -7.0460369906E+00   -7.0269951383E+00   -7.0080558560E+00
   -6.9892183752E+00   -6.9704818798E+00   -6.9518455295E+00   -6.9333084424E+00
   -6.9148699375E+00   -6.8965292368E+00   -6.8782855621E+00   -6.8601380505E+00
   -6.8420859984E+00   -6.8241286990E+00   -6.8062654103E+00   -6.7884953698E+00
   -6.7708177656E+00   -6.7532319854E+00   -6.7357373219E+00   -6.7183330671E+00
   -6.7010184473E+00   -6.6837927903E+00   -6.6666554703E+00   -6.6496058125E+00
   -6.6326431421E+00   -6.6157666823E+00   -6.5989758804E+00   -6.5822701010E+00
   -6.5656487007E+00   -6.5491110111E+00   -6.5326563354E+00   -6.5162841441E+00
   -6.4999938235E+00   -6.4837847599E+00   -6.4676562899E+00   -6.4516078042E+00
   -6.4356387756E+00   -6.4197486188E+00   -6.4039367487E+00   -6.3882025128E+00
   -6.3725453724E+00   -6.3569648071E+00   -6.3414602590E+00   -6.3260311700E+00
   -6.3106769043E+00   -6.2953969768E+00   -6.2801908797E+00   -6.2650580808E+00
   -6.2499980480E+00   -6.2350101670E+00   -6.2200939909E+00   -6.2052490294E+00
   -6.1904747752E+00   -6.1757707207E+00   -6.1611362778E+00   -6.1465710231E+00
   -6.1320744889E+00   -6.1176461915E+00   -6.1032856470E+00   -6.0889922973E+00
   -6.0747657293E+00   -6.0606055023E+00   -6.0465111553E+00   -6.0324822268E+00
   -6.0185181931E+00   -6.0046186382E+00   -5.9907831532E+00   -5.9770112983E+00
   -5.9633026336E+00   -5.9496566741E+00   -5.9360729884E+00   -5.9225512035E+00
   -5.9090909000E+00   -5.8956916585E+00   -5.8823530365E+00   -5.8690745765E+00
   -5.8558559443E+00   -5.8426967401E+00   -5.8295965640E+00   -5.8165550161E+00
   -5.8035716148E+00   -5.7906460552E+00   -5.7777779601E+00   -5.7649669482E+00
   -5.7522126383E+00   -5.7395145987E+00   -5.7268724734E+00   -5.7142859341E+00
   -5.7017546171E+00   -5.6892781589E+00   -5.6768561825E+00   -5.6644882715E+00
   -5.6521741479E+00   -5.6399134652E+00   -5.6277058768E+00   -5.6155510361E+00
   -5.6034485424E+00   -5.5913980862E+00   -5.5793993644E+00   -5.5674520465E+00
   -5.5555558021E+00   -5.5437102920E+00   -5.5319151260E+00   -5.5201700587E+00
   -5.5084747749E+00   -5.4968289597E+00   -5.4852322979E+00   -5.4736844371E+00
   -5.4621850659E+00   -5.4507339243E+00   -5.4393307118E+00   -5.4279751280E+00
   -5.4166668726E+00   -5.4054055860E+00   -5.3941910212E+00   -5.3830229081E+00
   -5.3719009604E+00   -5.3608248916E+00   -5.3497944136E+00   -5.3388091708E+00
   -5.3278689611E+00   -5.3169735113E+00   -5.3061225483E+00   -5.2953157991E+00
   -5.2845529766E+00   -5.2738337660E+00   -5.2631579649E+00   -5.2525253127E+00
   -5.2419355493E+00   -5.2313884141E+00   -5.2208836263E+00   -5.2104208995E+00
   -5.2000000352E+00   -5.1896207854E+00   -5.1792829016E+00   -5.1689861358E+00
   -5.1587302176E+00   -5.1485148774E+00   -5.1383399254E+00   -5.1282051249E+00
   -5.1181102393E+00   -5.1080550318E+00   -5.0980392473E+00   -5.0880626218E+00
   -5.0781249782E+00   -5.0682260910E+00   -5.0583657344E+00   -5.0485436828E+00
   -5.0387597003E+00   -5.0290135181E+00   -5.0193049759E+00   -5.0096338586E+00
   -4.9999999511E+00   -4.9904030382E+00   -4.9808429048E+00   -4.9713192746E+00
   -4.9618320009E+00   -4.9523808808E+00   -4.9429657092E+00   -4.9335862810E+00
   -4.9242423911E+00   -4.9149337904E+00   -4.9056603055E+00   -4.8964217596E+00
   -4.8872179571E+00   -4.8780487026E+00   -4.8689138003E+00   -4.8598130326E+00
   -4.8507461903E+00   -4.8417131259E+00   -4.8327136529E+00   -4.8237475850E+00
   -4.8148147356E+00   -4.8059149185E+00   -4.7970478910E+00   -4.7882135277E+00
   -4.7794116538E+00   -4.7706420918E+00   -4.7619046638E+00   -4.7531991921E+00
   -4.7445254723E+00   -4.7358833250E+00   -4.7272726125E+00   -4.7186931654E+00
   -4.7101448142E+00   -4.7016273896E+00   -4.6931407219E+00   -4.6846845918E+00
   -4.6762588798E+00   -4.6678634311E+00   -4.6594980841E+00   -4.6511626772E+00
   -4.6428570489E+00   -4.6345810245E+00   -4.6263344146E+00   -4.6181171076E+00
   -4.6099289496E+00   -4.6017697864E+00   -4.5936394640E+00   -4.5855378284E+00
   -4.5774646979E+00   -4.5694199226E+00   -4.5614033825E+00   -4.5534149308E+00
   -4.5454544206E+00   -4.5375217051E+00   -4.5296166374E+00   -4.5217390337E+00
   -4.5138887723E+00   -4.5060657296E+00   -4.4982697654E+00   -4.4905007398E+00
   -4.4827585128E+00   -4.4750429442E+00   -4.4673538527E+00   -4.4596911344E+00
   -4.4520546662E+00   -4.4444443145E+00   -4.4368599459E+00   -4.4293014268E+00
   -4.4217686237E+00   -4.4142613614E+00   -4.4067795445E+00   -4.3993230543E+00
   -4.3918917635E+00   -4.3844855450E+00   -4.3771042714E+00   -4.3697478154E+00
   -4.3624160119E+00   -4.3551087644E+00   -4.3478259630E+00   -4.3405674865E+00
  </PP_LOCAL>
 <PP_NONLOCAL>
   <PP_BETA.1
       type="real"
       size=" 600"
       columns="4"
       index="1"
       angular_momentum="0"
       cutoff_radius_index=" 324"
       cutoff_radius="    3.2300000000E+00" >
    0.0000000000E+00    7.9158587469E-03    1.5791734735E-02    2.3587771210E-02
    3.1264363104E-02    3.8782282085E-02    4.6102800650E-02    5.3187814950E-02
    5.9999966034E-02    6.6502759198E-02    7.2660681146E-02    7.8439314643E-02
    8.3805450374E-02    8.8727195725E-02    9.3174080183E-02    9.7117157087E-02
    1.0052910147E-01    1.0338430368E-01    1.0565895863E-01    1.0733115029E-01
    1.0838093128E-01    1.0879039739E-01    1.0854375657E-01    1.0762739258E-01
    1.0602992262E-01    1.0374224926E-01    1.0075760615E-01    9.7071597514E-02
    9.2682231113E-02    8.7589944878E-02    8.1797626829E-02    7.5310628259E-02
    6.8136770045E-02    6.0286342061E-02    5.1772096227E-02    4.2609231362E-02
    3.2815372647E-02    2.2410542725E-02    1.1417126801E-02   -1.4016969932E-04
   -1.2234370036E-02   -2.4836281912E-02   -3.7914559934E-02   -5.1435774648E-02
   -6.5364488030E-02   -7.9663335296E-02   -9.4293112859E-02   -1.0921287224E-01
   -1.2438001884E-01   -1.3975041647E-01   -1.5527850325E-01   -1.7091740181E-01
   -1.8661903262E-01   -2.0233426094E-01   -2.1801300146E-01   -2.3360436271E-01
   -2.4905678937E-01   -2.6431818141E-01   -2.7933606679E-01   -2.9405771483E-01
   -3.0843030544E-01   -3.2240108079E-01   -3.3591744954E-01   -3.4892722547E-01
   -3.6137869719E-01   -3.7322079219E-01   -3.8440329527E-01   -3.9487692500E-01
   -4.0459348866E-01   -4.1350607078E-01   -4.2156917182E-01   -4.2873882231E-01