<UPF version="2.0.1">
  <PP_INFO>

 Ir_ONCV_PBE_FR-1.0.upf

 This pseudopotential file has been produced using the code
 ONCVPSP  (Optimized Norm-Conservinng Vanderbilt PSeudopotential)
 fully-relativistic version 2.1.1, 03/26/2014 by D. R. Hamann
 The code is available through a link at URL www.mat-simresearch.com.
 Documentation with the package provides a full description of the
 input data below.

 While it is not required under the terms of the GNU GPL, it is
 suggested that you cite D. R. Hamann, Phys. Rev. B 88, 085117 (2013)
 in any publication using these pseudopotentials.

 -----

 This pseudopotential was produced with the SG15 1.0 and/or 1.1
 parameter sets, the Schlipf-Gygi norm-conserving pseudopotential
 library. For details of the construction and testing of the
 pseudopotential please refer to:

 M. Schlipf, F. Gygi, Comp. Phys. Comm. 196, 36 (2015)
 http://dx.doi.org/10.1016/j.cpc.2015.05.011

 The above authors kindly ask that you include this reference in all
 publications associated to this pseudopotential.

 Please note this fully-relativistic version does not employ the
 above self-consistent procedure at the fully-relativistic level.

 -----

 This pseudopotential was produced by Peter Scherpelz for the purpose
 of performing GW calculations with spin-orbit-coupling. Please see
 the publication:

 P. Scherpelz, M. Govoni, I. Hamada, G. Galli; J. Chem. Theory Comput. (2016)
 http://dx.doi.org/10.1021/acs.jctc.6b00114

 If you use these pseudopotentials in your work, we also kindly ask
 that you cite the above publication.

 -----

 This work is licensed under the Creative Commons Attribution-ShareAlike 
 4.0 International License. To view a copy of this license, visit 
 http://creativecommons.org/licenses/by-sa/4.0/ or send a letter to 
 Creative Commons, PO Box 1866, Mountain View, CA 94042, USA.

 The SG15 library is Copyright 2015 The Regents of the University of
 California.  Further modifications of these files are Copyright 2016
 Peter Scherpelz.

    <PP_INPUTFILE>
# ATOM AND REFERENCE CONFIGURATION
# atsym  z    nc    nv    iexc   psfile
  Ir 77.00    10     4     4      upf
#
#   n    l    f        energy (Ha)
    1    0    2.00
    2    0    2.00
    2    1    6.00
    3    0    2.00
    3    1    6.00
    3    2   10.00
    4    0    2.00
    4    1    6.00
    4    2   10.00
    4    3   14.00
    5    0    2.00
    5    1    6.00
    6    0    2.00
    5    2    7.00
#
# PSEUDOPOTENTIAL AND OPTIMIZATION
# lmax
    3
#
#   l,   rc,     ep,   ncon, nbas, qcut
    0    2.30   -3.59    5    8    7.00
    1    2.11   -1.87    5    8    7.73
    2    2.30   -0.25    5    8    6.63
    3    2.88    0.20    5    8    5.92
#
# LOCAL POTENTIAL
# lloc, lpopt,  rc(5),   dvloc0
    4    5      1.41       0.00
#
# VANDERBILT-KLEINMAN-BYLANDER PROJECTORs
# l, nproj, debl
    0    2    3.3593
    1    2    1.8336
    2    2    1.8215
    3    2    1.4179
#
# MODEL CORE CHARGE
# icmod, fcfact
    0    0.00
#
# LOG DERIVATIVE ANALYSIS
# epsh1, epsh2, depsh
   -5.00    3.00    0.02
#
# OUTPUT GRID
# rlmax, drl
    6.00    0.01
#
# TEST CONFIGURATIONS
# ncnf
    0
# nvcnf
#   n    l    f
    </PP_INPUTFILE>
  </PP_INFO>
  <!--                               -->
  <!-- END OF HUMAN READABLE SECTION -->
  <!--                               -->
    <PP_HEADER
       generated="Generated using ONCVPSP code by D. R. Hamann"
       author="anonymous"
       date="150703"
       comment=""
       element="Ir"
       pseudo_type="NC"
       relativistic="full"
       is_ultrasoft="F"
       is_paw="F"
       is_coulomb="F"
       has_so="T"
       has_wfc="F"
       has_gipaw="F"
       core_correction="F"
       functional="PBE"
       z_valence="   17.00"
       total_psenergy="  -1.06033736002E+02"
       rho_cutoff="   6.01000000000E+00"
       l_max="3"
       l_local="-1"
       mesh_size="   602"
       number_of_wfc="0"
       number_of_proj="14"/>
 <PP_MESH>
   <PP_R type="real"  size=" 602" columns="8">
    0.0000    0.0100    0.0200    0.0300    0.0400    0.0500    0.0600    0.0700
    0.0800    0.0900    0.1000    0.1100    0.1200    0.1300    0.1400    0.1500
    0.1600    0.1700    0.1800    0.1900    0.2000    0.2100    0.2200    0.2300
    0.2400    0.2500    0.2600    0.2700    0.2800    0.2900    0.3000    0.3100
    0.3200    0.3300    0.3400    0.3500    0.3600    0.3700    0.3800    0.3900
    0.4000    0.4100    0.4200    0.4300    0.4400    0.4500    0.4600    0.4700
    0.4800    0.4900    0.5000    0.5100    0.5200    0.5300    0.5400    0.5500
    0.5600    0.5700    0.5800    0.5900    0.6000    0.6100    0.6200    0.6300
    0.6400    0.6500    0.6600    0.6700    0.6800    0.6900    0.7000    0.7100
    0.7200    0.7300    0.7400    0.7500    0.7600    0.7700    0.7800    0.7900
    0.8000    0.8100    0.8200    0.8300    0.8400    0.8500    0.8600    0.8700
    0.8800    0.8900    0.9000    0.9100    0.9200    0.9300    0.9400    0.9500
    0.9600    0.9700    0.9800    0.9900    1.0000    1.0100    1.0200    1.0300
    1.0400    1.0500    1.0600    1.0700    1.0800    1.0900    1.1000    1.1100
    1.1200    1.1300    1.1400    1.1500    1.1600    1.1700    1.1800    1.1900
    1.2000    1.2100    1.2200    1.2300    1.2400    1.2500    1.2600    1.2700
    1.2800    1.2900    1.3000    1.3100    1.3200    1.3300    1.3400    1.3500
    1.3600    1.3700    1.3800    1.3900    1.4000    1.4100    1.4200    1.4300
    1.4400    1.4500    1.4600    1.4700    1.4800    1.4900    1.5000    1.5100
    1.5200    1.5300    1.5400    1.5500    1.5600    1.5700    1.5800    1.5900
    1.6000    1.6100    1.6200    1.6300    1.6400    1.6500    1.6600    1.6700
    1.6800    1.6900    1.7000    1.7100    1.7200    1.7300    1.7400    1.7500
    1.7600    1.7700    1.7800    1.7900    1.8000    1.8100    1.8200    1.8300
    1.8400    1.8500    1.8600    1.8700    1.8800    1.8900    1.9000    1.9100
    1.9200    1.9300    1.9400    1.9500    1.9600    1.9700    1.9800    1.9900
    2.0000    2.0100    2.0200    2.0300    2.0400    2.0500    2.0600    2.0700
    2.0800    2.0900    2.1000    2.1100    2.1200    2.1300    2.1400    2.1500
    2.1600    2.1700    2.1800    2.1900    2.2000    2.2100    2.2200    2.2300
    2.2400    2.2500    2.2600    2.2700    2.2800    2.2900    2.3000    2.3100
    2.3200    2.3300    2.3400    2.3500    2.3600    2.3700    2.3800    2.3900
    2.4000    2.4100    2.4200    2.4300    2.4400    2.4500    2.4600    2.4700
    2.4800    2.4900    2.5000    2.5100    2.5200    2.5300    2.5400    2.5500
    2.5600    2.5700    2.5800    2.5900    2.6000    2.6100    2.6200    2.6300
    2.6400    2.6500    2.6600    2.6700    2.6800    2.6900    2.7000    2.7100
    2.7200    2.7300    2.7400    2.7500    2.7600    2.7700    2.7800    2.7900
    2.8000    2.8100    2.8200    2.8300    2.8400    2.8500    2.8600    2.8700
    2.8800    2.8900    2.9000    2.9100    2.9200    2.9300    2.9400    2.9500
    2.9600    2.9700    2.9800    2.9900    3.0000    3.0100    3.0200    3.0300
    3.0400    3.0500    3.0600    3.0700    3.0800    3.0900    3.1000    3.1100
    3.1200    3.1300    3.1400    3.1500    3.1600    3.1700    3.1800    3.1900
    3.2000    3.2100    3.2200    3.2300    3.2400    3.2500    3.2600    3.2700
    3.2800    3.2900    3.3000    3.3100    3.3200    3.3300    3.3400    3.3500
    3.3600    3.3700    3.3800    3.3900    3.4000    3.4100    3.4200    3.4300
    3.4400    3.4500    3.4600    3.4700    3.4800    3.4900    3.5000    3.5100
    3.5200    3.5300    3.5400    3.5500    3.5600    3.5700    3.5800    3.5900
    3.6000    3.6100    3.6200    3.6300    3.6400    3.6500    3.6600    3.6700
    3.6800    3.6900    3.7000    3.7100    3.7200    3.7300    3.7400    3.7500
    3.7600    3.7700    3.7800    3.7900    3.8000    3.8100    3.8200    3.8300
    3.8400    3.8500    3.8600    3.8700    3.8800    3.8900    3.9000    3.9100
    3.9200    3.9300    3.9400    3.9500    3.9600    3.9700    3.9800    3.9900
    4.0000    4.0100    4.0200    4.0300    4.0400    4.0500    4.0600    4.0700
    4.0800    4.0900    4.1000    4.1100    4.1200    4.1300    4.1400    4.1500
    4.1600    4.1700    4.1800    4.1900    4.2000    4.2100    4.2200    4.2300
    4.2400    4.2500    4.2600    4.2700    4.2800    4.2900    4.3000    4.3100
    4.3200    4.3300    4.3400    4.3500    4.3600    4.3700    4.3800    4.3900
    4.4000    4.4100    4.4200    4.4300    4.4400    4.4500    4.4600    4.4700
    4.4800    4.4900    4.5000    4.5100    4.5200    4.5300    4.5400    4.5500
    4.5600    4.5700    4.5800    4.5900    4.6000    4.6100    4.6200    4.6300
    4.6400    4.6500    4.6600    4.6700    4.6800    4.6900    4.7000    4.7100
    4.7200    4.7300    4.7400    4.7500    4.7600    4.7700    4.7800    4.7900
    4.8000    4.8100    4.8200    4.8300    4.8400    4.8500    4.8600    4.8700
    4.8800    4.8900    4.9000    4.9100    4.9200    4.9300    4.9400    4.9500
    4.9600    4.9700    4.9800    4.9900    5.0000    5.0100    5.0200    5.0300
    5.0400    5.0500    5.0600    5.0700    5.0800    5.0900    5.1000    5.1100
    5.1200    5.1300    5.1400    5.1500    5.1600    5.1700    5.1800    5.1900
    5.2000    5.2100    5.2200    5.2300    5.2400    5.2500    5.2600    5.2700
    5.2800    5.2900    5.3000    5.3100    5.3200    5.3300    5.3400    5.3500
    5.3600    5.3700    5.3800    5.3900    5.4000    5.4100    5.4200    5.4300
    5.4400    5.4500    5.4600    5.4700    5.4800    5.4900    5.5000    5.5100
    5.5200    5.5300    5.5400    5.5500    5.5600    5.5700    5.5800    5.5900
    5.6000    5.6100    5.6200    5.6300    5.6400    5.6500    5.6600    5.6700
    5.6800    5.6900    5.7000    5.7100    5.7200    5.7300    5.7400    5.7500
    5.7600    5.7700    5.7800    5.7900    5.8000    5.8100    5.8200    5.8300
    5.8400    5.8500    5.8600    5.8700    5.8800    5.8900    5.9000    5.9100
    5.9200    5.9300    5.9400    5.9500    5.9600    5.9700    5.9800    5.9900
    6.0000    6.0100
   </PP_R>
   <PP_RAB type="real"  size=" 602" columns="8">
    0.0100    0.0100    0.0100    0.0100    0.0100    0.0100    0.0100    0.0100
    0.0100    0.0100    0.0100    0.0100    0.0100    0.0100    0.0100    0.0100
    0.0100    0.0100    0.0100    0.0100    0.0100    0.0100    0.0100    0.0100
    0.0100    0.0100    0.0100    0.0100    0.0100    0.0100    0.0100    0.0100
    0.0100    0.0100    0.0100    0.0100    0.0100    0.0100    0.0100    0.0100
    0.0100    0.0100    0.0100    0.0100    0.0100    0.0100    0.0100    0.0100
    0.0100    0.0100    0.0100    0.0100    0.0100    0.0100    0.0100    0.0100
    0.0100    0.0100    0.0100    0.0100    0.0100    0.0100    0.0100    0.0100
    0.0100    0.0100    0.0100    0.0100    0.0100    0.0100    0.0100    0.0100
    0.0100    0.0100    0.0100    0.0100    0.0100    0.0100    0.0100    0.0100
    0.0100    0.0100    0.0100    0.0100    0.0100    0.0100    0.0100    0.0100
    0.0100    0.0100    0.0100    0.0100    0.0100    0.0100    0.0100    0.0100
    0.0100    0.0100    0.0100    0.0100    0.0100    0.0100    0.0100    0.0100
    0.0100    0.0100    0.0100    0.0100    0.0100    0.0100    0.0100    0.0100
    0.0100    0.0100    0.0100    0.0100    0.0100    0.0100    0.0100    0.0100
    0.0100    0.0100    0.0100    0.0100    0.0100    0.0100    0.0100    0.0100
    0.0100    0.0100    0.0100    0.0100    0.0100    0.0100    0.0100    0.0100
    0.0100    0.0100    0.0100    0.0100    0.0100    0.0100    0.0100    0.0100
    0.0100    0.0100    0.0100    0.0100    0.0100    0.0100    0.0100    0.0100
    0.0100    0.0100    0.0100    0.0100    0.0100    0.0100    0.0100    0.0100
    0.0100    0.0100    0.0100    0.0100    0.0100    0.0100    0.0100    0.0100
    0.0100    0.0100    0.0100    0.0100    0.0100    0.0100    0.0100    0.0100
    0.0100    0.0100    0.0100    0.0100    0.0100    0.0100    0.0100    0.0100
    0.0100    0.0100    0.0100    0.0100    0.0100    0.0100    0.0100    0.0100
    0.0100    0.0100    0.0100    0.0100    0.0100    0.0100    0.0100    0.0100
    0.0100    0.0100    0.0100    0.0100    0.0100    0.0100    0.0100    0.0100
    0.0100    0.0100    0.0100    0.0100    0.0100    0.0100    0.0100    0.0100
    0.0100    0.0100    0.0100    0.0100    0.0100    0.0100    0.0100    0.0100
    0.0100    0.0100    0.0100    0.0100    0.0100    0.0100    0.0100    0.0100
    0.0100    0.0100    0.0100    0.0100    0.0100    0.0100    0.0100    0.0100
    0.0100    0.0100    0.0100    0.0100    0.0100    0.0100    0.0100    0.0100
    0.0100    0.0100    0.0100    0.0100    0.0100    0.0100    0.0100    0.0100
    0.0100    0.0100    0.0100    0.0100    0.0100    0.0100    0.0100    0.0100
    0.0100    0.0100    0.0100    0.0100    0.0100    0.0100    0.0100    0.0100
    0.0100    0.0100    0.0100    0.0100    0.0100    0.0100    0.0100    0.0100
    0.0100    0.0100    0.0100    0.0100    0.0100    0.0100    0.0100    0.0100
    0.0100    0.0100    0.0100    0.0100    0.0100    0.0100    0.0100    0.0100
    0.0100    0.0100    0.0100    0.0100    0.0100    0.0100    0.0100    0.0100
    0.0100    0.0100    0.0100    0.0100    0.0100    0.0100    0.0100    0.0100
    0.0100    0.0100    0.0100    0.0100    0.0100    0.0100    0.0100    0.0100
    0.0100    0.0100    0.0100    0.0100    0.0100    0.0100    0.0100    0.0100
    0.0100    0.0100    0.0100    0.0100    0.0100    0.0100    0.0100    0.0100
    0.0100    0.0100    0.0100    0.0100    0.0100    0.0100    0.0100    0.0100
    0.0100    0.0100    0.0100    0.0100    0.0100    0.0100    0.0100    0.0100
    0.0100    0.0100    0.0100    0.0100    0.0100    0.0100    0.0100    0.0100
    0.0100    0.0100    0.0100    0.0100    0.0100    0.0100    0.0100    0.0100
    0.0100    0.0100    0.0100    0.0100    0.0100    0.0100    0.0100    0.0100
    0.0100    0.0100    0.0100    0.0100    0.0100    0.0100    0.0100    0.0100
    0.0100    0.0100    0.0100    0.0100    0.0100    0.0100    0.0100    0.0100
    0.0100    0.0100    0.0100    0.0100    0.0100    0.0100    0.0100    0.0100
    0.0100    0.0100    0.0100    0.0100    0.0100    0.0100    0.0100    0.0100
    0.0100    0.0100    0.0100    0.0100    0.0100    0.0100    0.0100    0.0100
    0.0100    0.0100    0.0100    0.0100    0.0100    0.0100    0.0100    0.0100
    0.0100    0.0100    0.0100    0.0100    0.0100    0.0100    0.0100    0.0100
    0.0100    0.0100    0.0100    0.0100    0.0100    0.0100    0.0100    0.0100
    0.0100    0.0100    0.0100    0.0100    0.0100    0.0100    0.0100    0.0100
    0.0100    0.0100    0.0100    0.0100    0.0100    0.0100    0.0100    0.0100
    0.0100    0.0100    0.0100    0.0100    0.0100    0.0100    0.0100    0.0100
    0.0100    0.0100    0.0100    0.0100    0.0100    0.0100    0.0100    0.0100
    0.0100    0.0100    0.0100    0.0100    0.0100    0.0100    0.0100    0.0100
    0.0100    0.0100    0.0100    0.0100    0.0100    0.0100    0.0100    0.0100
    0.0100    0.0100    0.0100    0.0100    0.0100    0.0100    0.0100    0.0100
    0.0100    0.0100    0.0100    0.0100    0.0100    0.0100    0.0100    0.0100
    0.0100    0.0100    0.0100    0.0100    0.0100    0.0100    0.0100    0.0100
    0.0100    0.0100    0.0100    0.0100    0.0100    0.0100    0.0100    0.0100
    0.0100    0.0100    0.0100    0.0100    0.0100    0.0100    0.0100    0.0100
    0.0100    0.0100    0.0100    0.0100    0.0100    0.0100    0.0100    0.0100
    0.0100    0.0100    0.0100    0.0100    0.0100    0.0100    0.0100    0.0100
    0.0100    0.0100    0.0100    0.0100    0.0100    0.0100    0.0100    0.0100
    0.0100    0.0100    0.0100    0.0100    0.0100    0.0100    0.0100    0.0100
    0.0100    0.0100    0.0100    0.0100    0.0100    0.0100    0.0100    0.0100
    0.0100    0.0100    0.0100    0.0100    0.0100    0.0100    0.0100    0.0100
    0.0100    0.0100    0.0100    0.0100    0.0100    0.0100    0.0100    0.0100
    0.0100    0.0100    0.0100    0.0100    0.0100    0.0100    0.0100    0.0100
    0.0100    0.0100    0.0100    0.0100    0.0100    0.0100    0.0100    0.0100
    0.0100    0.0100
   </PP_RAB>
 </PP_MESH>
  <PP_LOCAL type="real"  size=" 602" columns="4">
   -5.4351912756E+01   -5.4349578434E+01   -5.4342686359E+01   -5.4331107915E+01
   -5.4314714481E+01   -5.4293342436E+01   -5.4266806886E+01   -5.4234916061E+01
   -5.4197484814E+01   -5.4154346027E+01   -5.4105359151E+01   -5.4050415639E+01
   -5.3989441395E+01   -5.3922396664E+01   -5.3849273953E+01   -5.3770094594E+01
   -5.3684904548E+01   -5.3593769911E+01   -5.3496772514E+01   -5.3394005841E+01
   -5.3285571448E+01   -5.3171575913E+01   -5.3052128356E+01   -5.2927338479E+01
   -5.2797315071E+01   -5.2662164922E+01   -5.2521992071E+01   -5.2376897320E+01
   -5.2226977962E+01   -5.2072327672E+01   -5.1913036519E+01   -5.1749191059E+01
   -5.1580874500E+01   -5.1408166899E+01   -5.1231145378E+01   -5.1049884382E+01
   -5.0864455905E+01   -5.0674929747E+01   -5.0481373760E+01   -5.0283854082E+01
   -5.0082435376E+01   -4.9877181058E+01   -4.9668153522E+01   -4.9455414361E+01
   -4.9239024574E+01   -4.9019044782E+01   -4.8795535435E+01   -4.8568557010E+01
   -4.8338170213E+01   -4.8104436177E+01   -4.7867416658E+01   -4.7627174215E+01
   -4.7383772399E+01   -4.7137275946E+01   -4.6887750916E+01   -4.6635264897E+01
   -4.6379887132E+01   -4.6121688675E+01   -4.5860742520E+01   -4.5597123732E+01
   -4.5330909510E+01   -4.5062179358E+01   -4.4791015030E+01   -4.4517500713E+01
   -4.4241722989E+01   -4.3963770802E+01   -4.3683735574E+01   -4.3401711091E+01
   -4.3117793460E+01   -4.2832081033E+01   -4.2544674417E+01   -4.2255676274E+01
   -4.1965191241E+01   -4.1673325800E+01   -4.1380188124E+01   -4.1085887978E+01
   -4.0790536515E+01   -4.0494246115E+01   -4.0197130222E+01   -3.9899303168E+01
   -3.9600880001E+01   -3.9301976303E+01   -3.9002708024E+01   -3.8703191299E+01
   -3.8403542284E+01   -3.8103876988E+01   -3.7804311109E+01   -3.7504959879E+01
   -3.7205937910E+01   -3.6907359048E+01   -3.6609336229E+01   -3.6311981347E+01
   -3.6015405118E+01   -3.5719716955E+01   -3.5425024851E+01   -3.5131435255E+01
   -3.4839053006E+01   -3.4547981145E+01   -3.4258320816E+01   -3.3970171214E+01
   -3.3683629463E+01   -3.3398790521E+01   -3.3115747089E+01   -3.2834589677E+01
   -3.2555406054E+01   -3.2278281550E+01   -3.2003298880E+01   -3.1730538052E+01
   -3.1460076550E+01   -3.1191988483E+01   -3.0926345120E+01   -3.0663214714E+01
   -3.0402662660E+01   -3.0144750803E+01   -2.9889537477E+01   -2.9637077815E+01
   -2.9387423970E+01   -2.9140623769E+01   -2.8896721420E+01   -2.8655757793E+01
   -2.8417770294E+01   -2.8182791208E+01   -2.7950849476E+01   -2.7721971047E+01
   -2.7496175820E+01   -2.7273480185E+01   -2.7053897522E+01   -2.6837434909E+01
   -2.6624095428E+01   -2.6413879402E+01   -2.6206779999E+01   -2.6002786556E+01
   -2.5801885796E+01   -2.5604055889E+01   -2.5409272551E+01   -2.5217506977E+01
   -2.5028722571E+01   -2.4842881078E+01   -2.4659936556E+01   -2.4479837817E+01
   -2.4302531429E+01   -2.4127953296E+01   -2.3956040037E+01   -2.3786724530E+01
   -2.3619942881E+01   -2.3455631771E+01   -2.3293731726E+01   -2.3134182933E+01
   -2.2976929299E+01   -2.2821915158E+01   -2.2669086954E+01   -2.2518393143E+01
   -2.2369782614E+01   -2.2223207643E+01   -2.2078619566E+01   -2.1935973909E+01
   -2.1795225133E+01   -2.1656331076E+01   -2.1519249399E+01   -2.1383940155E+01
   -2.1250363992E+01   -2.1118483105E+01   -2.0988260903E+01   -2.0859661673E+01
   -2.0732651359E+01   -2.0607196287E+01   -2.0483264722E+01   -2.0360824981E+01
   -2.0239847442E+01   -2.0120302366E+01   -2.0002162045E+01   -1.9885398637E+01
   -1.9769986163E+01   -1.9655898629E+01   -1.9543111604E+01   -1.9431600896E+01
   -1.9321343454E+01   -1.9212316835E+01   -1.9104499210E+01   -1.8997869827E+01
   -1.8892407933E+01   -1.8788094393E+01   -1.8684909409E+01   -1.8582835369E+01
   -1.8481853332E+01   -1.8381946941E+01   -1.8283098482E+01   -1.8185292249E+01
   -1.8088511918E+01   -1.7992742225E+01   -1.7897968174E+01   -1.7804174862E+01
   -1.7711348477E+01   -1.7619474455E+01   -1.7528539862E+01   -1.7438530862E+01
   -1.7349434804E+01   -1.7261238804E+01   -1.7173930282E+01   -1.7087497212E+01
   -1.7001927106E+01   -1.6917208521E+01   -1.6833329436E+01   -1.6750278484E+01
   -1.6668044291E+01   -1.6586615448E+01   -1.6505981106E+01   -1.6426129988E+01
   -1.6347051457E+01   -1.6268734673E+01   -1.6191168915E+01   -1.6114343914E+01
   -1.6038248888E+01   -1.5962874004E+01   -1.5888209119E+01   -1.5814244192E+01
   -1.5740969855E+01   -1.5668376235E+01   -1.5596454075E+01   -1.5525194032E+01
   -1.5454586609E+01   -1.5384623057E+01   -1.5315294156E+01   -1.5246591099E+01
   -1.5178505351E+01   -1.5111027899E+01   -1.5044150612E+01   -1.4977865057E+01
   -1.4912162691E+01   -1.4847035911E+01   -1.4782476386E+01   -1.4718476439E+01
   -1.4655029136E+01   -1.4592126727E+01   -1.4529762495E+01   -1.4467929761E+01
   -1.4406621400E+01   -1.4345831076E+01   -1.4285552167E+01   -1.4225777829E+01
   -1.4166502164E+01   -1.4107718812E+01   -1.4049421431E+01   -1.3991604340E+01
   -1.3934261433E+01   -1.3877386774E+01   -1.3820974917E+01   -1.3765020015E+01
   -1.3709516481E+01   -1.3654459106E+01   -1.3599842300E+01   -1.3545660776E+01
   -1.3491909562E+01   -1.3438583323E+01   -1.3385677028E+01   -1.3333185939E+01
   -1.3281104979E+01   -1.3229429326E+01   -1.3178154478E+01   -1.3127275615E+01
   -1.3076788082E+01   -1.3026687616E+01   -1.2976969652E+01   -1.2927629666E+01
   -1.2878663631E+01   -1.2830067237E+01   -1.2781836062E+01   -1.2733966306E+01
   -1.2686453916E+01   -1.2639294548E+01   -1.2592484619E+01   -1.2546020270E+01
   -1.2499897405E+01   -1.2454112456E+01   -1.2408661812E+01   -1.2363541634E+01
   -1.2318748335E+01   -1.2274278550E+01   -1.2230128701E+01   -1.2186295158E+01
   -1.2142774794E+01   -1.2099564262E+01   -1.2056659973E+01   -1.2014058926E+01
   -1.1971757965E+01   -1.1929753753E+01   -1.1888043184E+01   -1.1846623353E+01
   -1.1805491189E+01   -1.1764643458E+01   -1.1724077495E+01   -1.1683790400E+01
   -1.1643779103E+01   -1.1604040865E+01   -1.1564573017E+01   -1.1525372755E+01
   -1.1486437161E+01   -1.1447763812E+01   -1.1409350071E+01   -1.1371193150E+01
   -1.1333290543E+01   -1.1295639835E+01   -1.1258238508E+01   -1.1221083831E+01
   -1.1184173638E+01   -1.1147505532E+01   -1.1111077018E+01   -1.1074885704E+01
   -1.1038929447E+01   -1.1003205965E+01   -1.0967712802E+01   -1.0932447863E+01
   -1.0897409031E+01   -1.0862594123E+01   -1.0828000758E+01   -1.0793627074E+01
   -1.0759470995E+01   -1.0725530381E+01   -1.0691803087E+01   -1.0658287292E+01
   -1.0624981019E+01   -1.0591882183E+01   -1.0558988838E+01   -1.0526299212E+01
   -1.0493811419E+01   -1.0461523438E+01   -1.0429433490E+01   -1.0397539858E+01
   -1.0365840741E+01   -1.0334334190E+01   -1.0303018563E+01   -1.0271892200E+01
   -1.0240953386E+01   -1.0210200247E+01   -1.0179631249E+01   -1.0149244797E+01
   -1.0119039258E+01   -1.0089012838E+01   -1.0059164082E+01   -1.0029491471E+01
   -9.9999934443E+00   -9.9706682955E+00   -9.9415146251E+00   -9.9125309916E+00
   -9.8837159088E+00   -9.8550677592E+00   -9.8265851755E+00   -9.7982667999E+00
   -9.7701112157E+00   -9.7421169009E+00   -9.7142824972E+00   -9.6866067358E+00
   -9.6590882660E+00   -9.6317256666E+00   -9.6045175674E+00   -9.5774627925E+00
   -9.5505600541E+00   -9.5238080372E+00   -9.4972053409E+00   -9.4707508848E+00
   -9.4444434409E+00   -9.4182817813E+00   -9.3922645303E+00   -9.3663906326E+00
   -9.3406589407E+00   -9.3150682839E+00   -9.2896174006E+00   -9.2643051592E+00
   -9.2391305230E+00   -9.2140923758E+00   -9.1891895765E+00   -9.1644209021E+00
   -9.1397854266E+00   -9.1152820857E+00   -9.0909098149E+00   -9.0666674360E+00
   -9.0425539854E+00   -9.0185684960E+00   -8.9947099530E+00   -8.9709773067E+00
   -8.9473694652E+00   -8.9238855826E+00   -8.9005246915E+00   -8.8772858244E+00
   -8.8541679105E+00   -8.8311700639E+00   -8.8082914136E+00   -8.7855310370E+00
   -8.7628880007E+00   -8.7403612595E+00   -8.7179500702E+00   -8.6956535533E+00
   -8.6734708293E+00   -8.6514009568E+00   -8.6294430490E+00   -8.6075963531E+00
   -8.5858600306E+00   -8.5642332432E+00   -8.5427150511E+00   -8.5213047011E+00
   -8.5000014366E+00   -8.4788044581E+00   -8.4577129662E+00   -8.4367260323E+00
   -8.4158430117E+00   -8.3950631509E+00   -8.3743856878E+00   -8.3538098442E+00
   -8.3333347581E+00   -8.3129598220E+00   -8.2926843092E+00   -8.2725074929E+00
   -8.2524286151E+00   -8.2324468858E+00   -8.2125617141E+00   -8.1927724071E+00
   -8.1730782721E+00   -8.1534785776E+00   -8.1339725858E+00   -8.1145597284E+00
   -8.0952393449E+00   -8.0760107746E+00   -8.0568733196E+00   -8.0378262749E+00
   -8.0188691008E+00   -8.0000011677E+00   -7.9812218456E+00   -7.9625304759E+00
   -7.9439263686E+00   -7.9254090185E+00   -7.9069778251E+00   -7.8886321881E+00
   -7.8703714936E+00   -7.8521950501E+00   -7.8341023920E+00   -7.8160929469E+00
   -7.7981661422E+00   -7.7803214054E+00   -7.7625580557E+00   -7.7448756440E+00
   -7.7272736337E+00   -7.7097514789E+00   -7.6923086338E+00   -7.6749444736E+00
   -7.6576585108E+00   -7.6404502624E+00   -7.6233192082E+00   -7.6062648277E+00
   -7.5892865578E+00   -7.5723838583E+00   -7.5555563041E+00   -7.5388033992E+00
   -7.5221246473E+00   -7.5055195524E+00   -7.4889875095E+00   -7.4725281540E+00
   -7.4561410128E+00   -7.4398256129E+00   -7.4235814813E+00   -7.4074080835E+00
   -7.3913049725E+00   -7.3752717448E+00   -7.3593079493E+00   -7.3434131351E+00
   -7.3275868444E+00   -7.3118285365E+00   -7.2961378789E+00   -7.2805144415E+00
   -7.2649577944E+00   -7.2494675077E+00   -7.2340430997E+00   -7.2186841493E+00
   -7.2033902989E+00   -7.1881611385E+00   -7.1729962582E+00   -7.1578952480E+00
   -7.1428576118E+00   -7.1278830278E+00   -7.1129711193E+00   -7.0981214955E+00
   -7.0833337655E+00   -7.0686075224E+00   -7.0539423121E+00   -7.0393378438E+00
   -7.0247937450E+00   -7.0103096429E+00   -6.9958851650E+00   -6.9815199007E+00
   -6.9672134630E+00   -6.9529655553E+00   -6.9387758224E+00   -6.9246439090E+00
   -6.9105694598E+00   -6.8965520675E+00   -6.8825913953E+00   -6.8686871467E+00
   -6.8548389832E+00   -6.8410465661E+00   -6.8273095565E+00   -6.8136275568E+00
   -6.8000002639E+00   -6.7864273880E+00   -6.7729086062E+00   -6.7594435955E+00
   -6.7460320331E+00   -6.7326735366E+00   -6.7193678215E+00   -6.7061146104E+00
   -6.6929135956E+00   -6.6797644691E+00   -6.6666669230E+00   -6.6536205959E+00
   -6.6406252075E+00   -6.6276804986E+00   -6.6147861758E+00   -6.6019419454E+00
   -6.5891475139E+00   -6.5764025461E+00   -6.5637067522E+00   -6.5510598966E+00
   -6.5384616995E+00   -6.5259118809E+00   -6.5134101610E+00   -6.5009562358E+00
   -6.4885497937E+00   -6.4761906271E+00   -6.4638784693E+00   -6.4516130534E+00
   -6.4393941127E+00   -6.4272213791E+00   -6.4150945077E+00   -6.4030133233E+00
   -6.3909775714E+00   -6.3789869978E+00   -6.3670413479E+00   -6.3551403675E+00
   -6.3432837489E+00   -6.3314712718E+00   -6.3197027204E+00   -6.3079778522E+00
   -6.2962964246E+00   -6.2846581952E+00   -6.2730629022E+00   -6.2615102661E+00
   -6.2500001142E+00   -6.2385322153E+00   -6.2271063382E+00   -6.2157222517E+00
   -6.2043797245E+00   -6.1930784691E+00   -6.1818182984E+00   -6.1705990118E+00
   -6.1594203888E+00   -6.1482822090E+00   -6.1371842519E+00   -6.1261262850E+00
   -6.1151080395E+00   -6.1041293670E+00   -6.0931900573E+00   -6.0822899002E+00
   -6.0714286856E+00   -6.0606062032E+00   -6.0498222062E+00   -6.0390764897E+00
   -6.0283688893E+00   -6.0176992047E+00   -6.0070672354E+00   -5.9964727811E+00
   -5.9859156415E+00   -5.9753955618E+00   -5.9649123862E+00   -5.9544659402E+00
   -5.9440560328E+00   -5.9336824729E+00   -5.9233450695E+00   -5.9130436315E+00
   -5.9027779029E+00   -5.8925477621E+00   -5.8823530307E+00   -5.8721935264E+00
   -5.8620690671E+00   -5.8519794708E+00   -5.8419245519E+00   -5.8319040682E+00
   -5.8219179095E+00   -5.8119659022E+00   -5.8020478726E+00   -5.7921636470E+00
   -5.7823130519E+00   -5.7724959093E+00   -5.7627119888E+00   -5.7529611862E+00
   -5.7432433357E+00   -5.7335582718E+00   -5.7239058290E+00   -5.7142858417E+00
   -5.7046981442E+00   -5.6951425075E+00   -5.6856188367E+00   -5.6761269743E+00
   -5.6666667623E+00   -5.6572380430E+00
  </PP_LOCAL>
 <PP_NONLOCAL>
   <PP_BETA.1
       type="real"
       size=" 602"
       columns="4"
       index="1"
       angular_momentum="0"
       cutoff_radius_index=" 292"
       cutoff_radius="    2.9100000000E+00" >
    0.0000000000E+00    1.0235859974E-02    2.0433891342E-02    3.0556249069E-02
    4.0565056023E-02    5.0422388855E-02    6.0090266147E-02    6.9530639588E-02
    7.8705388869E-02    8.7576320983E-02    9.6105174565E-02    1.0425362988E-01
    1.1198332499E-01    1.1925587865E-01    1.2603292036E-01    1.3227612784E-01
    1.3794727252E-01    1.4300827302E-01    1.4742125696E-01    1.5114863119E-01
    1.5415316039E-01    1.5639805423E-01    1.5784706262E-01    1.5846457923E-01
    1.5821575263E-01    1.5706660530E-01    1.5498415904E-01    1.5193656784E-01
    1.4789325582E-01    1.4282506109E-01    1.3670438422E-01    1.2950534051E-01
    1.2120391483E-01    1.1177811967E-01    1.0120815473E-01    8.9476562761E-02
    7.6568392824E-02    6.2471353252E-02    4.7175963968E-02    3.0675712722E-02
    1.2967194129E-02   -5.9497497584E-03   -2.6071897787E-02   -4.7392526397E-02
   -6.9901295686E-02   -9.3584145893E-02   -1.1842320535E-01   -1.4439671099E-01
   -1.7147894541E-01   -1.9964017663E-01   -2.2884662592E-01   -2.5906045048E-01
   -2.9023973661E-01   -3.2233850228E-01   -3.5530674721E-01   -3.8909048111E-01
   -4.2363180516E-01   -4.5886898954E-01   -4.9473658227E-01   -5.3116553049E-01