<UPF version="2.0.1">
  <PP_INFO>

 La_ONCV_PBE_FR-1.0.upf

 This pseudopotential file has been produced using the code
 ONCVPSP  (Optimized Norm-Conservinng Vanderbilt PSeudopotential)
 fully-relativistic version 2.1.1, 03/26/2014 by D. R. Hamann
 The code is available through a link at URL www.mat-simresearch.com.
 Documentation with the package provides a full description of the
 input data below.

 While it is not required under the terms of the GNU GPL, it is
 suggested that you cite D. R. Hamann, Phys. Rev. B 88, 085117 (2013)
 in any publication using these pseudopotentials.

 -----

 This pseudopotential was produced with the SG15 1.0 and/or 1.1
 parameter sets, the Schlipf-Gygi norm-conserving pseudopotential
 library. For details of the construction and testing of the
 pseudopotential please refer to:

 M. Schlipf, F. Gygi, Comp. Phys. Comm. 196, 36 (2015)
 http://dx.doi.org/10.1016/j.cpc.2015.05.011

 The above authors kindly ask that you include this reference in all
 publications associated to this pseudopotential.

 Please note this fully-relativistic version does not employ the
 above self-consistent procedure at the fully-relativistic level.

 -----

 This pseudopotential was produced by Peter Scherpelz for the purpose
 of performing GW calculations with spin-orbit-coupling. Please see
 the publication:

 P. Scherpelz, M. Govoni, I. Hamada, G. Galli; J. Chem. Theory Comput. (2016)
 http://dx.doi.org/10.1021/acs.jctc.6b00114

 If you use these pseudopotentials in your work, we also kindly ask
 that you cite the above publication.

 -----

 This work is licensed under the Creative Commons Attribution-ShareAlike 
 4.0 International License. To view a copy of this license, visit 
 http://creativecommons.org/licenses/by-sa/4.0/ or send a letter to 
 Creative Commons, PO Box 1866, Mountain View, CA 94042, USA.

 The SG15 library is Copyright 2015 The Regents of the University of
 California.  Further modifications of these files are Copyright 2016
 Peter Scherpelz.

    <PP_INPUTFILE>
# ATOM AND REFERENCE CONFIGURATION
# atsym  z    nc    nv    iexc   psfile
  La 57.00     9     4     4      upf
#
#   n    l    f        energy (Ha)
    1    0    2.00
    2    0    2.00
    2    1    6.00
    3    0    2.00
    3    1    6.00
    3    2   10.00
    4    0    2.00
    4    1    6.00
    4    2   10.00
    5    0    2.00
    5    1    6.00
    5    2    2.00
    6    0    1.00
#
# PSEUDOPOTENTIAL AND OPTIMIZATION
# lmax
    3
#
#   l,   rc,     ep,   ncon, nbas, qcut
    0    2.89   -1.37    5    8    4.60
    1    2.89   -0.74    5    8    4.83
    2    2.92   -0.08    5    8    5.75
    3    2.47   -0.10    5    8    7.66
#
# LOCAL POTENTIAL
# lloc, lpopt,  rc(5),   dvloc0
    4    5      2.27       0.00
#
# VANDERBILT-KLEINMAN-BYLANDER PROJECTORs
# l, nproj, debl
    0    2    1.2553
    1    2    1.5259
    2    2    1.8211
    3    2    1.2933
#
# MODEL CORE CHARGE
# icmod, fcfact
    0    0.00
#
# LOG DERIVATIVE ANALYSIS
# epsh1, epsh2, depsh
   -5.00    3.00    0.02
#
# OUTPUT GRID
# rlmax, drl
    6.00    0.01
#
# TEST CONFIGURATIONS
# ncnf
    0
# nvcnf
#   n    l    f
    </PP_INPUTFILE>
  </PP_INFO>
  <!--                               -->
  <!-- END OF HUMAN READABLE SECTION -->
  <!--                               -->
    <PP_HEADER
       generated="Generated using ONCVPSP code by D. R. Hamann"
       author="anonymous"
       date="150703"
       comment=""
       element="La"
       pseudo_type="NC"
       relativistic="full"
       is_ultrasoft="F"
       is_paw="F"
       is_coulomb="F"
       has_so="T"
       has_wfc="F"
       has_gipaw="F"
       core_correction="F"
       functional="PBE"
       z_valence="   11.00"
       total_psenergy="  -3.17557503250E+01"
       rho_cutoff="   6.01000000000E+00"
       l_max="3"
       l_local="-1"
       mesh_size="   602"
       number_of_wfc="0"
       number_of_proj="14"/>
 <PP_MESH>
   <PP_R type="real"  size=" 602" columns="8">
    0.0000    0.0100    0.0200    0.0300    0.0400    0.0500    0.0600    0.0700
    0.0800    0.0900    0.1000    0.1100    0.1200    0.1300    0.1400    0.1500
    0.1600    0.1700    0.1800    0.1900    0.2000    0.2100    0.2200    0.2300
    0.2400    0.2500    0.2600    0.2700    0.2800    0.2900    0.3000    0.3100
    0.3200    0.3300    0.3400    0.3500    0.3600    0.3700    0.3800    0.3900
    0.4000    0.4100    0.4200    0.4300    0.4400    0.4500    0.4600    0.4700
    0.4800    0.4900    0.5000    0.5100    0.5200    0.5300    0.5400    0.5500
    0.5600    0.5700    0.5800    0.5900    0.6000    0.6100    0.6200    0.6300
    0.6400    0.6500    0.6600    0.6700    0.6800    0.6900    0.7000    0.7100
    0.7200    0.7300    0.7400    0.7500    0.7600    0.7700    0.7800    0.7900
    0.8000    0.8100    0.8200    0.8300    0.8400    0.8500    0.8600    0.8700
    0.8800    0.8900    0.9000    0.9100    0.9200    0.9300    0.9400    0.9500
    0.9600    0.9700    0.9800    0.9900    1.0000    1.0100    1.0200    1.0300
    1.0400    1.0500    1.0600    1.0700    1.0800    1.0900    1.1000    1.1100
    1.1200    1.1300    1.1400    1.1500    1.1600    1.1700    1.1800    1.1900
    1.2000    1.2100    1.2200    1.2300    1.2400    1.2500    1.2600    1.2700
    1.2800    1.2900    1.3000    1.3100    1.3200    1.3300    1.3400    1.3500
    1.3600    1.3700    1.3800    1.3900    1.4000    1.4100    1.4200    1.4300
    1.4400    1.4500    1.4600    1.4700    1.4800    1.4900    1.5000    1.5100
    1.5200    1.5300    1.5400    1.5500    1.5600    1.5700    1.5800    1.5900
    1.6000    1.6100    1.6200    1.6300    1.6400    1.6500    1.6600    1.6700
    1.6800    1.6900    1.7000    1.7100    1.7200    1.7300    1.7400    1.7500
    1.7600    1.7700    1.7800    1.7900    1.8000    1.8100    1.8200    1.8300
    1.8400    1.8500    1.8600    1.8700    1.8800    1.8900    1.9000    1.9100
    1.9200    1.9300    1.9400    1.9500    1.9600    1.9700    1.9800    1.9900
    2.0000    2.0100    2.0200    2.0300    2.0400    2.0500    2.0600    2.0700
    2.0800    2.0900    2.1000    2.1100    2.1200    2.1300    2.1400    2.1500
    2.1600    2.1700    2.1800    2.1900    2.2000    2.2100    2.2200    2.2300
    2.2400    2.2500    2.2600    2.2700    2.2800    2.2900    2.3000    2.3100
    2.3200    2.3300    2.3400    2.3500    2.3600    2.3700    2.3800    2.3900
    2.4000    2.4100    2.4200    2.4300    2.4400    2.4500    2.4600    2.4700
    2.4800    2.4900    2.5000    2.5100    2.5200    2.5300    2.5400    2.5500
    2.5600    2.5700    2.5800    2.5900    2.6000    2.6100    2.6200    2.6300
    2.6400    2.6500    2.6600    2.6700    2.6800    2.6900    2.7000    2.7100
    2.7200    2.7300    2.7400    2.7500    2.7600    2.7700    2.7800    2.7900
    2.8000    2.8100    2.8200    2.8300    2.8400    2.8500    2.8600    2.8700
    2.8800    2.8900    2.9000    2.9100    2.9200    2.9300    2.9400    2.9500
    2.9600    2.9700    2.9800    2.9900    3.0000    3.0100    3.0200    3.0300
    3.0400    3.0500    3.0600    3.0700    3.0800    3.0900    3.1000    3.1100
    3.1200    3.1300    3.1400    3.1500    3.1600    3.1700    3.1800    3.1900
    3.2000    3.2100    3.2200    3.2300    3.2400    3.2500    3.2600    3.2700
    3.2800    3.2900    3.3000    3.3100    3.3200    3.3300    3.3400    3.3500
    3.3600    3.3700    3.3800    3.3900    3.4000    3.4100    3.4200    3.4300
    3.4400    3.4500    3.4600    3.4700    3.4800    3.4900    3.5000    3.5100
    3.5200    3.5300    3.5400    3.5500    3.5600    3.5700    3.5800    3.5900
    3.6000    3.6100    3.6200    3.6300    3.6400    3.6500    3.6600    3.6700
    3.6800    3.6900    3.7000    3.7100    3.7200    3.7300    3.7400    3.7500
    3.7600    3.7700    3.7800    3.7900    3.8000    3.8100    3.8200    3.8300
    3.8400    3.8500    3.8600    3.8700    3.8800    3.8900    3.9000    3.9100
    3.9200    3.9300    3.9400    3.9500    3.9600    3.9700    3.9800    3.9900
    4.0000    4.0100    4.0200    4.0300    4.0400    4.0500    4.0600    4.0700
    4.0800    4.0900    4.1000    4.1100    4.1200    4.1300    4.1400    4.1500
    4.1600    4.1700    4.1800    4.1900    4.2000    4.2100    4.2200    4.2300
    4.2400    4.2500    4.2600    4.2700    4.2800    4.2900    4.3000    4.3100
    4.3200    4.3300    4.3400    4.3500    4.3600    4.3700    4.3800    4.3900
    4.4000    4.4100    4.4200    4.4300    4.4400    4.4500    4.4600    4.4700
    4.4800    4.4900    4.5000    4.5100    4.5200    4.5300    4.5400    4.5500
    4.5600    4.5700    4.5800    4.5900    4.6000    4.6100    4.6200    4.6300
    4.6400    4.6500    4.6600    4.6700    4.6800    4.6900    4.7000    4.7100
    4.7200    4.7300    4.7400    4.7500    4.7600    4.7700    4.7800    4.7900
    4.8000    4.8100    4.8200    4.8300    4.8400    4.8500    4.8600    4.8700
    4.8800    4.8900    4.9000    4.9100    4.9200    4.9300    4.9400    4.9500
    4.9600    4.9700    4.9800    4.9900    5.0000    5.0100    5.0200    5.0300
    5.0400    5.0500    5.0600    5.0700    5.0800    5.0900    5.1000    5.1100
    5.1200    5.1300    5.1400    5.1500    5.1600    5.1700    5.1800    5.1900
    5.2000    5.2100    5.2200    5.2300    5.2400    5.2500    5.2600    5.2700
    5.2800    5.2900    5.3000    5.3100    5.3200    5.3300    5.3400    5.3500
    5.3600    5.3700    5.3800    5.3900    5.4000    5.4100    5.4200    5.4300
    5.4400    5.4500    5.4600    5.4700    5.4800    5.4900    5.5000    5.5100
    5.5200    5.5300    5.5400    5.5500    5.5600    5.5700    5.5800    5.5900
    5.6000    5.6100    5.6200    5.6300    5.6400    5.6500    5.6600    5.6700
    5.6800    5.6900    5.7000    5.7100    5.7200    5.7300    5.7400    5.7500
    5.7600    5.7700    5.7800    5.7900    5.8000    5.8100    5.8200    5.8300
    5.8400    5.8500    5.8600    5.8700    5.8800    5.8900    5.9000    5.9100
    5.9200    5.9300    5.9400    5.9500    5.9600    5.9700    5.9800    5.9900
    6.0000    6.0100
   </PP_R>
   <PP_RAB type="real"  size=" 602" columns="8">
    0.0100    0.0100    0.0100    0.0100    0.0100    0.0100    0.0100    0.0100
    0.0100    0.0100    0.0100    0.0100    0.0100    0.0100    0.0100    0.0100
    0.0100    0.0100    0.0100    0.0100    0.0100    0.0100    0.0100    0.0100
    0.0100    0.0100    0.0100    0.0100    0.0100    0.0100    0.0100    0.0100
    0.0100    0.0100    0.0100    0.0100    0.0100    0.0100    0.0100    0.0100
    0.0100    0.0100    0.0100    0.0100    0.0100    0.0100    0.0100    0.0100
    0.0100    0.0100    0.0100    0.0100    0.0100    0.0100    0.0100    0.0100
    0.0100    0.0100    0.0100    0.0100    0.0100    0.0100    0.0100    0.0100
    0.0100    0.0100    0.0100    0.0100    0.0100    0.0100    0.0100    0.0100
    0.0100    0.0100    0.0100    0.0100    0.0100    0.0100    0.0100    0.0100
    0.0100    0.0100    0.0100    0.0100    0.0100    0.0100    0.0100    0.0100
    0.0100    0.0100    0.0100    0.0100    0.0100    0.0100    0.0100    0.0100
    0.0100    0.0100    0.0100    0.0100    0.0100    0.0100    0.0100    0.0100
    0.0100    0.0100    0.0100    0.0100    0.0100    0.0100    0.0100    0.0100
    0.0100    0.0100    0.0100    0.0100    0.0100    0.0100    0.0100    0.0100
    0.0100    0.0100    0.0100    0.0100    0.0100    0.0100    0.0100    0.0100
    0.0100    0.0100    0.0100    0.0100    0.0100    0.0100    0.0100    0.0100
    0.0100    0.0100    0.0100    0.0100    0.0100    0.0100    0.0100    0.0100
    0.0100    0.0100    0.0100    0.0100    0.0100    0.0100    0.0100    0.0100
    0.0100    0.0100    0.0100    0.0100    0.0100    0.0100    0.0100    0.0100
    0.0100    0.0100    0.0100    0.0100    0.0100    0.0100    0.0100    0.0100
    0.0100    0.0100    0.0100    0.0100    0.0100    0.0100    0.0100    0.0100
    0.0100    0.0100    0.0100    0.0100    0.0100    0.0100    0.0100    0.0100
    0.0100    0.0100    0.0100    0.0100    0.0100    0.0100    0.0100    0.0100
    0.0100    0.0100    0.0100    0.0100    0.0100    0.0100    0.0100    0.0100
    0.0100    0.0100    0.0100    0.0100    0.0100    0.0100    0.0100    0.0100
    0.0100    0.0100    0.0100    0.0100    0.0100    0.0100    0.0100    0.0100
    0.0100    0.0100    0.0100    0.0100    0.0100    0.0100    0.0100    0.0100
    0.0100    0.0100    0.0100    0.0100    0.0100    0.0100    0.0100    0.0100
    0.0100    0.0100    0.0100    0.0100    0.0100    0.0100    0.0100    0.0100
    0.0100    0.0100    0.0100    0.0100    0.0100    0.0100    0.0100    0.0100
    0.0100    0.0100    0.0100    0.0100    0.0100    0.0100    0.0100    0.0100
    0.0100    0.0100    0.0100    0.0100    0.0100    0.0100    0.0100    0.0100
    0.0100    0.0100    0.0100    0.0100    0.0100    0.0100    0.0100    0.0100
    0.0100    0.0100    0.0100    0.0100    0.0100    0.0100    0.0100    0.0100
    0.0100    0.0100    0.0100    0.0100    0.0100    0.0100    0.0100    0.0100
    0.0100    0.0100    0.0100    0.0100    0.0100    0.0100    0.0100    0.0100
    0.0100    0.0100    0.0100    0.0100    0.0100    0.0100    0.0100    0.0100
    0.0100    0.0100    0.0100    0.0100    0.0100    0.0100    0.0100    0.0100
    0.0100    0.0100    0.0100    0.0100    0.0100    0.0100    0.0100    0.0100
    0.0100    0.0100    0.0100    0.0100    0.0100    0.0100    0.0100    0.0100
    0.0100    0.0100    0.0100    0.0100    0.0100    0.0100    0.0100    0.0100
    0.0100    0.0100    0.0100    0.0100    0.0100    0.0100    0.0100    0.0100
    0.0100    0.0100    0.0100    0.0100    0.0100    0.0100    0.0100    0.0100
    0.0100    0.0100    0.0100    0.0100    0.0100    0.0100    0.0100    0.0100
    0.0100    0.0100    0.0100    0.0100    0.0100    0.0100    0.0100    0.0100
    0.0100    0.0100    0.0100    0.0100    0.0100    0.0100    0.0100    0.0100
    0.0100    0.0100    0.0100    0.0100    0.0100    0.0100    0.0100    0.0100
    0.0100    0.0100    0.0100    0.0100    0.0100    0.0100    0.0100    0.0100
    0.0100    0.0100    0.0100    0.0100    0.0100    0.0100    0.0100    0.0100
    0.0100    0.0100    0.0100    0.0100    0.0100    0.0100    0.0100    0.0100
    0.0100    0.0100    0.0100    0.0100    0.0100    0.0100    0.0100    0.0100
    0.0100    0.0100    0.0100    0.0100    0.0100    0.0100    0.0100    0.0100
    0.0100    0.0100    0.0100    0.0100    0.0100    0.0100    0.0100    0.0100
    0.0100    0.0100    0.0100    0.0100    0.0100    0.0100    0.0100    0.0100
    0.0100    0.0100    0.0100    0.0100    0.0100    0.0100    0.0100    0.0100
    0.0100    0.0100    0.0100    0.0100    0.0100    0.0100    0.0100    0.0100
    0.0100    0.0100    0.0100    0.0100    0.0100    0.0100    0.0100    0.0100
    0.0100    0.0100    0.0100    0.0100    0.0100    0.0100    0.0100    0.0100
    0.0100    0.0100    0.0100    0.0100    0.0100    0.0100    0.0100    0.0100
    0.0100    0.0100    0.0100    0.0100    0.0100    0.0100    0.0100    0.0100
    0.0100    0.0100    0.0100    0.0100    0.0100    0.0100    0.0100    0.0100
    0.0100    0.0100    0.0100    0.0100    0.0100    0.0100    0.0100    0.0100
    0.0100    0.0100    0.0100    0.0100    0.0100    0.0100    0.0100    0.0100
    0.0100    0.0100    0.0100    0.0100    0.0100    0.0100    0.0100    0.0100
    0.0100    0.0100    0.0100    0.0100    0.0100    0.0100    0.0100    0.0100
    0.0100    0.0100    0.0100    0.0100    0.0100    0.0100    0.0100    0.0100
    0.0100    0.0100    0.0100    0.0100    0.0100    0.0100    0.0100    0.0100
    0.0100    0.0100    0.0100    0.0100    0.0100    0.0100    0.0100    0.0100
    0.0100    0.0100    0.0100    0.0100    0.0100    0.0100    0.0100    0.0100
    0.0100    0.0100    0.0100    0.0100    0.0100    0.0100    0.0100    0.0100
    0.0100    0.0100    0.0100    0.0100    0.0100    0.0100    0.0100    0.0100
    0.0100    0.0100    0.0100    0.0100    0.0100    0.0100    0.0100    0.0100
    0.0100    0.0100    0.0100    0.0100    0.0100    0.0100    0.0100    0.0100
    0.0100    0.0100    0.0100    0.0100    0.0100    0.0100    0.0100    0.0100
    0.0100    0.0100
   </PP_RAB>
 </PP_MESH>
  <PP_LOCAL type="real"  size=" 602" columns="4">
   -2.1554132156E+01   -2.1556499415E+01   -2.1564404736E+01   -2.1576841923E+01
   -2.1592804782E+01   -2.1611065026E+01   -2.1630307879E+01   -2.1649257710E+01
   -2.1666777039E+01   -2.1681930782E+01   -2.1694015638E+01   -2.1702560161E+01
   -2.1707303822E+01   -2.1708163704E+01   -2.1705196183E+01   -2.1698559052E+01
   -2.1688477458E+01   -2.1675215460E+01   -2.1659053653E+01   -2.1640272624E+01
   -2.1619141480E+01   -2.1595910551E+01   -2.1570807355E+01   -2.1544034978E+01
   -2.1515772144E+01   -2.1486174391E+01   -2.1455375965E+01   -2.1423491991E+01
   -2.1390620801E+01   -2.1356846198E+01   -2.1322239567E+01   -2.1286861789E+01
   -2.1250764934E+01   -2.1213993696E+01   -2.1176586658E+01   -2.1138577300E+01
   -2.1099994874E+01   -2.1060865080E+01   -2.1021210651E+01   -2.0981051797E+01
   -2.0940406564E+01   -2.0899291124E+01   -2.0857720003E+01   -2.0815706263E+01
   -2.0773261642E+01   -2.0730396668E+01   -2.0687120759E+01   -2.0643442299E+01
   -2.0599368698E+01   -2.0554906459E+01   -2.0510061223E+01   -2.0464837828E+01
   -2.0419240338E+01   -2.0373272095E+01   -2.0326935769E+01   -2.0280233375E+01
   -2.0233166345E+01   -2.0185735533E+01   -2.0137941289E+01   -2.0089783461E+01
   -2.0041261468E+01   -1.9992374308E+01   -1.9943120610E+01   -1.9893498673E+01
   -1.9843506483E+01   -1.9793141765E+01   -1.9742402015E+01   -1.9691284518E+01
   -1.9639786397E+01   -1.9587904640E+01   -1.9535636126E+01   -1.9482977660E+01
   -1.9429926004E+01   -1.9376477904E+01   -1.9322630118E+01   -1.9268379449E+01
   -1.9213722766E+01   -1.9158657038E+01   -1.9103179358E+01   -1.9047286968E+01
   -1.8990977286E+01   -1.8934247927E+01   -1.8877096734E+01   -1.8819521794E+01
   -1.8761521462E+01   -1.8703094384E+01   -1.8644239516E+01   -1.8584956140E+01
   -1.8525243885E+01   -1.8465102741E+01   -1.8404533076E+01   -1.8343535645E+01
   -1.8282111607E+01   -1.8220262528E+01   -1.8157990393E+01   -1.8095297613E+01
   -1.8032187043E+01   -1.7968661965E+01   -1.7904726101E+01   -1.7840383609E+01
   -1.7775639086E+01   -1.7710497555E+01   -1.7644964456E+01   -1.7579045694E+01
   -1.7512747573E+01   -1.7446076801E+01   -1.7379040488E+01   -1.7311646100E+01
   -1.7243901541E+01   -1.7175815057E+01   -1.7107395244E+01   -1.7038651013E+01
   -1.6969591617E+01   -1.6900226647E+01   -1.6830565963E+01   -1.6760619677E+01
   -1.6690398197E+01   -1.6619912191E+01   -1.6549172537E+01   -1.6478190291E+01
   -1.6406976787E+01   -1.6335543504E+01   -1.6263902066E+01   -1.6192064287E+01
   -1.6120042120E+01   -1.6047847614E+01   -1.5975492949E+01   -1.5902990414E+01
   -1.5830352354E+01   -1.5757591203E+01   -1.5684719462E+01   -1.5611749657E+01
   -1.5538694372E+01   -1.5465566208E+01   -1.5392377778E+01   -1.5319141707E+01
   -1.5245870609E+01   -1.5172577095E+01   -1.5099273737E+01   -1.5025973094E+01
   -1.4952687675E+01   -1.4879429932E+01   -1.4806212304E+01   -1.4733047103E+01
   -1.4659946638E+01   -1.4586923095E+01   -1.4513988590E+01   -1.4441155183E+01
   -1.4368434756E+01   -1.4295839225E+01   -1.4223380232E+01   -1.4151069458E+01
   -1.4078918356E+01   -1.4006938311E+01   -1.3935140579E+01   -1.3863536219E+01
   -1.3792136270E+01   -1.3720951442E+01   -1.3649992538E+01   -1.3579269900E+01
   -1.3508794057E+01   -1.3438574996E+01   -1.3368622896E+01   -1.3298947416E+01
   -1.3229558354E+01   -1.3160465010E+01   -1.3091676788E+01   -1.3023202601E+01
   -1.2955051451E+01   -1.2887231831E+01   -1.2819752333E+01   -1.2752620994E+01
   -1.2685845997E+01   -1.2619434884E+01   -1.2553395430E+01   -1.2487734640E+01
   -1.2422459889E+01   -1.2357577601E+01   -1.2293094760E+01   -1.2229017213E+01
   -1.2165351423E+01   -1.2102102780E+01   -1.2039277123E+01   -1.1976879432E+01
   -1.1914914853E+01   -1.1853388001E+01   -1.1792303256E+01   -1.1731664914E+01
   -1.1671476530E+01   -1.1611742117E+01   -1.1552464423E+01   -1.1493647005E+01
   -1.1435292075E+01   -1.1377402377E+01   -1.1319979898E+01   -1.1263026405E+01
   -1.1206543739E+01   -1.1150532661E+01   -1.1094994815E+01   -1.1039930239E+01
   -1.0985339732E+01   -1.0931223273E+01   -1.0877580537E+01   -1.0824411528E+01
   -1.0771714923E+01   -1.0719490308E+01   -1.0667736001E+01   -1.0616450543E+01
   -1.0565632402E+01   -1.0515279004E+01   -1.0465388671E+01   -1.0415958319E+01
   -1.0366985267E+01   -1.0318466705E+01   -1.0270398826E+01   -1.0222778689E+01
   -1.0175602088E+01   -1.0128865035E+01   -1.0082563715E+01   -1.0036693099E+01
   -9.9912489930E+00   -9.9462263299E+00   -9.9016197333E+00   -9.8574246201E+00
   -9.8136347528E+00   -9.7702446271E+00   -9.7272485712E+00   -9.6846399926E+00
   -9.6424127100E+00   -9.6005604824E+00   -9.5590770498E+00   -9.5179557322E+00
   -9.4771910521E+00   -9.4367771624E+00   -9.3967079322E+00   -9.3569784713E+00
   -9.3175832274E+00   -9.2785168388E+00   -9.2397747629E+00   -9.2013518072E+00
   -9.1632433040E+00   -9.1254450385E+00   -9.0879521883E+00   -9.0507606855E+00
   -9.0138666289E+00   -8.9772655673E+00   -8.9409539318E+00   -8.9049281217E+00
   -8.8691840499E+00   -8.8337185474E+00   -8.7985282999E+00   -8.7636095693E+00
   -8.7289594953E+00   -8.6945750334E+00   -8.6604527727E+00   -8.6265900822E+00
   -8.5929841662E+00   -8.5596319154E+00   -8.5265308610E+00   -8.4936784321E+00
   -8.4610717915E+00   -8.4287085798E+00   -8.3965864223E+00   -8.3647027221E+00
   -8.3330551902E+00   -8.3016416163E+00   -8.2704596087E+00   -8.2395069245E+00
   -8.2087814817E+00   -8.1782810559E+00   -8.1480034402E+00   -8.1179466418E+00
   -8.0881085604E+00   -8.0584870306E+00   -8.0290801054E+00   -7.9998857519E+00
   -7.9709018939E+00   -7.9421265561E+00   -7.9135577467E+00   -7.8851934592E+00
   -7.8570316941E+00   -7.8290704579E+00   -7.8013077591E+00   -7.7737416181E+00
   -7.7463699917E+00   -7.7191908638E+00   -7.6922022235E+00   -7.6654020480E+00
   -7.6387883161E+00   -7.6123589369E+00   -7.5861118790E+00   -7.5600453385E+00
   -7.5341573938E+00   -7.5084458643E+00   -7.4829091937E+00   -7.4575456396E+00
   -7.4323533588E+00   -7.4073305813E+00   -7.3824757305E+00   -7.3577871237E+00
   -7.3332629474E+00   -7.3089016905E+00   -7.2847017703E+00   -7.2606615384E+00
   -7.2367793368E+00   -7.2130537448E+00   -7.1894832295E+00   -7.1660661588E+00
   -7.1428010851E+00   -7.1196866066E+00   -7.0967212626E+00   -7.0739034554E+00
   -7.0512319185E+00   -7.0287052655E+00   -7.0063220679E+00   -6.9840808718E+00
   -6.9619804592E+00   -6.9400195019E+00   -6.9181966029E+00   -6.8965104539E+00
   -6.8749598645E+00   -6.8535435681E+00   -6.8322602055E+00   -6.8111085917E+00
   -6.7900875675E+00   -6.7691959248E+00   -6.7484323474E+00   -6.7277957524E+00
   -6.7072850158E+00   -6.6868989857E+00   -6.6666363927E+00   -6.6464962366E+00
   -6.6264774327E+00   -6.6065788829E+00   -6.5867993679E+00   -6.5671379520E+00
   -6.5475935944E+00   -6.5281652479E+00   -6.5088517469E+00   -6.4896522027E+00
   -6.4705656228E+00   -6.4515910089E+00   -6.4327272512E+00   -6.4139734928E+00
   -6.3953287931E+00   -6.3767922004E+00   -6.3583626639E+00   -6.3400393432E+00
   -6.3218213535E+00   -6.3037077871E+00   -6.2856976560E+00   -6.2677901214E+00
   -6.2499843575E+00   -6.2322794991E+00   -6.2146746238E+00   -6.1971688813E+00
   -6.1797615076E+00   -6.1624516774E+00   -6.1452385378E+00   -6.1281212150E+00
   -6.1110990079E+00   -6.0941711300E+00   -6.0773367947E+00   -6.0605951124E+00
   -6.0439454279E+00   -6.0273869972E+00   -6.0109190704E+00   -5.9945408315E+00
   -5.9782515736E+00   -5.9620506253E+00   -5.9459372716E+00   -5.9299107753E+00
   -5.9139703669E+00   -5.8981154479E+00   -5.8823453368E+00   -5.8666593519E+00
   -5.8510567334E+00   -5.8355368756E+00   -5.8200991545E+00   -5.8047429200E+00
   -5.7894674960E+00   -5.7742721913E+00   -5.7591564610E+00   -5.7441196856E+00
   -5.7291612456E+00   -5.7142804524E+00   -5.6994767444E+00   -5.6847495615E+00
   -5.6700983130E+00   -5.6555223995E+00   -5.6410211542E+00   -5.6265941004E+00
   -5.6122406749E+00   -5.5979603145E+00   -5.5837524159E+00   -5.5696164114E+00
   -5.5555518191E+00   -5.5415581020E+00   -5.5276347232E+00   -5.5137810814E+00
   -5.4999966924E+00   -5.4862810726E+00   -5.4726337101E+00   -5.4590540930E+00
   -5.4455416279E+00   -5.4320958979E+00   -5.4187164225E+00   -5.4054027137E+00
   -5.3921542763E+00   -5.3789705510E+00   -5.3658511520E+00   -5.3527956139E+00
   -5.3398034712E+00   -5.3268742426E+00   -5.3140074129E+00   -5.3012026078E+00
   -5.2884593835E+00   -5.2757772964E+00   -5.2631558830E+00   -5.2505946596E+00
   -5.2380932671E+00   -5.2256512827E+00   -5.2132682831E+00   -5.2009438273E+00
   -5.1886774506E+00   -5.1764688131E+00   -5.1643175117E+00   -5.1522231429E+00
   -5.1401852918E+00   -5.1282035012E+00   -5.1162774543E+00   -5.1044067666E+00
   -5.0925910534E+00   -5.0808299296E+00   -5.0691229352E+00   -5.0574697795E+00
   -5.0458700957E+00   -5.0343235173E+00   -5.0228296776E+00   -5.0113881480E+00
   -4.9999986229E+00   -4.9886607671E+00   -4.9773742311E+00   -4.9661386654E+00
   -4.9549536784E+00   -4.9438189378E+00   -4.9327341436E+00   -4.9216989626E+00
   -4.9107130615E+00   -4.8997760897E+00   -4.8888876790E+00   -4.8780475671E+00
   -4.8672554363E+00   -4.8565109689E+00   -4.8458138469E+00   -4.8351636928E+00
   -4.8245602500E+00   -4.8140032265E+00   -4.8034923193E+00   -4.7930272256E+00
   -4.7826076142E+00   -4.7722331737E+00   -4.7619036571E+00   -4.7516187757E+00
   -4.7413782405E+00   -4.7311817627E+00   -4.7210289939E+00   -4.7109197083E+00
   -4.7008536387E+00   -4.6908305096E+00   -4.6808500457E+00   -4.6709119511E+00
   -4.6610159283E+00   -4.6511617609E+00   -4.6413491862E+00   -4.6315779418E+00
   -4.6218477652E+00   -4.6121583511E+00   -4.6025094646E+00   -4.5929008782E+00
   -4.5833323413E+00   -4.5738036038E+00   -4.5643144152E+00   -4.5548644665E+00
   -4.5454535728E+00   -4.5360814995E+00   -4.5267480077E+00   -4.5174528590E+00
   -4.5081958050E+00   -4.4989765662E+00   -4.4897949669E+00   -4.4806507797E+00
   -4.4715437769E+00   -4.4624737310E+00   -4.4534403962E+00   -4.4444435239E+00
   -4.4354829394E+00   -4.4265584257E+00   -4.4176697659E+00   -4.4088167431E+00
   -4.3999991180E+00   -4.3912166625E+00   -4.3824692068E+00   -4.3737565441E+00
   -4.3650784674E+00   -4.3564347700E+00   -4.3478252230E+00   -4.3392496091E+00
   -4.3307077671E+00   -4.3221994996E+00   -4.3137246096E+00   -4.3052828998E+00
   -4.2968741552E+00   -4.2884981604E+00   -4.2801547660E+00   -4.2718437840E+00
   -4.2635650265E+00   -4.2553183053E+00   -4.2471034230E+00   -4.2389201571E+00
   -4.2307683735E+00   -4.2226478932E+00   -4.2145585367E+00   -4.2065001249E+00
   -4.1984724785E+00   -4.1904753672E+00   -4.1825086683E+00   -4.1745722132E+00
   -4.1666658310E+00   -4.1587893507E+00   -4.1509426015E+00   -4.1431253773E+00
   -4.1353375300E+00   -4.1275789141E+00   -4.1198493668E+00   -4.1121487250E+00
   -4.1044768259E+00   -4.0968334906E+00   -4.0892185387E+00   -4.0816318504E+00
   -4.0740732702E+00   -4.0665426428E+00   -4.0590398130E+00   -4.0515646253E+00
   -4.0441168814E+00   -4.0366964681E+00   -4.0293032443E+00   -4.0219370617E+00
   -4.0145977724E+00   -4.0072852282E+00   -3.9999992638E+00   -3.9927397186E+00
   -3.9855064833E+00   -3.9782994166E+00   -3.9711183775E+00   -3.9639632246E+00
   -3.9568338167E+00   -3.9497299769E+00   -3.9426515924E+00   -3.9355985408E+00
   -3.9285706873E+00   -3.9215678973E+00   -3.9145900362E+00   -3.9076369657E+00
   -3.9007085126E+00   -3.8938045911E+00   -3.8869250728E+00   -3.8800698293E+00
   -3.8732387324E+00   -3.8664316537E+00   -3.8596484500E+00   -3.8528889787E+00
   -3.8461531481E+00   -3.8394408361E+00   -3.8327519201E+00   -3.8260862778E+00
   -3.8194437869E+00   -3.8128243033E+00   -3.8062277058E+00   -3.7996539009E+00
   -3.7931027718E+00   -3.7865742019E+00   -3.7800680744E+00   -3.7735842729E+00
   -3.7671226557E+00   -3.7606831151E+00   -3.7542655586E+00   -3.7478698750E+00
   -3.7414959532E+00   -3.7351436818E+00   -3.7288129496E+00   -3.7225036214E+00
   -3.7162155941E+00   -3.7099487804E+00   -3.7037030740E+00   -3.6974783691E+00
   -3.6912745595E+00   -3.6850915391E+00   -3.6789291819E+00   -3.6727873826E+00
   -3.6666660615E+00   -3.6605651176E+00
  </PP_LOCAL>
 <PP_NONLOCAL>
   <PP_BETA.1
       type="real"
       size=" 602"
       columns="4"
       index="1"
       angular_momentum="0"
       cutoff_radius_index=" 296"
       cutoff_radius="    2.9500000000E+00" >
    0.0000000000E+00    9.8293216799E-04    1.9748302369E-03    2.9845848936E-03
    4.0209367020E-03    5.0924018041E-03    6.2071985332E-03    7.3731752379E-03
    8.5977396133E-03    9.8877898279E-03    1.1249647732E-02    1.2688994423E-02
    1.4210808441E-02    1.5819306840E-02    1.7517889419E-02    1.9309086297E-02
    2.1194509141E-02    2.3174806155E-02    2.5249621155E-02    2.7417556812E-02
    2.9676142335E-02    3.2021805622E-02    3.4449850188E-02    3.6954436885E-02
    3.9528570557E-02    4.2164091647E-02    4.4851673112E-02    4.7580822235E-02
    5.0339887849E-02    5.3116072699E-02    5.5895451050E-02    5.8662991507E-02
    6.1402584959E-02    6.4097077900E-02    6.6728310351E-02    6.9277159330E-02
    7.1723586440E-02    7.4046691391E-02    7.6224768534E-02    7.8235368667E-02
    8.0055366182E-02    8.1661028047E-02    8.3028088130E-02    8.4131824815E-02
    8.4947142008E-02    8.5448653276E-02    8.5610768840E-02    8.5407783429E-02
    8.4813971869E-02    8.3803681260E-02    8.2351425860E-02    8.0431978284E-02
    7.8020483341E-02    7.5092542218E-02    7.1624309249E-02    6.7592614318E-02
    6.2975020966E-02    5.7749977635E-02    5.1896851862E-02    4.5396095010E-02