<UPF version="2.0.1">
  <PP_INFO>

 N_ONCV_PBE_FR-1.0.upf

 This pseudopotential file has been produced using the code
 ONCVPSP  (Optimized Norm-Conservinng Vanderbilt PSeudopotential)
 fully-relativistic version 2.1.1, 03/26/2014 by D. R. Hamann
 The code is available through a link at URL www.mat-simresearch.com.
 Documentation with the package provides a full description of the
 input data below.

 While it is not required under the terms of the GNU GPL, it is
 suggested that you cite D. R. Hamann, Phys. Rev. B 88, 085117 (2013)
 in any publication using these pseudopotentials.

 -----

 This pseudopotential was produced with the SG15 1.0 and/or 1.1
 parameter sets, the Schlipf-Gygi norm-conserving pseudopotential
 library. For details of the construction and testing of the
 pseudopotential please refer to:

 M. Schlipf, F. Gygi, Comp. Phys. Comm. 196, 36 (2015)
 http://dx.doi.org/10.1016/j.cpc.2015.05.011

 The above authors kindly ask that you include this reference in all
 publications associated to this pseudopotential.

 Please note this fully-relativistic version does not employ the
 above self-consistent procedure at the fully-relativistic level.

 -----

 This pseudopotential was produced by Peter Scherpelz for the purpose
 of performing GW calculations with spin-orbit-coupling. Please see
 the publication:

 P. Scherpelz, M. Govoni, I. Hamada, G. Galli; J. Chem. Theory Comput. (2016)
 http://dx.doi.org/10.1021/acs.jctc.6b00114

 If you use these pseudopotentials in your work, we also kindly ask
 that you cite the above publication.

 -----

 This work is licensed under the Creative Commons Attribution-ShareAlike 
 4.0 International License. To view a copy of this license, visit 
 http://creativecommons.org/licenses/by-sa/4.0/ or send a letter to 
 Creative Commons, PO Box 1866, Mountain View, CA 94042, USA.

 The SG15 library is Copyright 2015 The Regents of the University of
 California.  Further modifications of these files are Copyright 2016
 Peter Scherpelz.

    <PP_INPUTFILE>
# ATOM AND REFERENCE CONFIGURATION
# atsym  z    nc    nv    iexc   psfile
  N  7.00     1     2     4      upf
#
#   n    l    f        energy (Ha)
    1    0    2.00
    2    0    2.00
    2    1    3.00
#
# PSEUDOPOTENTIAL AND OPTIMIZATION
# lmax
    1
#
#   l,   rc,     ep,   ncon, nbas, qcut
    0    1.61   -0.68    5    8    8.23
    1    1.51   -0.26    5    8    9.23
#
# LOCAL POTENTIAL
# lloc, lpopt,  rc(5),   dvloc0
    4    5      1.11       0.00
#
# VANDERBILT-KLEINMAN-BYLANDER PROJECTORs
# l, nproj, debl
    0    2    2.2455
    1    2    2.6217
#
# MODEL CORE CHARGE
# icmod, fcfact
    0    0.00
#
# LOG DERIVATIVE ANALYSIS
# epsh1, epsh2, depsh
   -5.00    3.00    0.02
#
# OUTPUT GRID
# rlmax, drl
    6.00    0.01
#
# TEST CONFIGURATIONS
# ncnf
    0
# nvcnf
#   n    l    f
    </PP_INPUTFILE>
  </PP_INFO>
  <!--                               -->
  <!-- END OF HUMAN READABLE SECTION -->
  <!--                               -->
    <PP_HEADER
       generated="Generated using ONCVPSP code by D. R. Hamann"
       author="anonymous"
       date="150703"
       comment=""
       element="N "
       pseudo_type="NC"
       relativistic="full"
       is_ultrasoft="F"
       is_paw="F"
       is_coulomb="F"
       has_so="T"
       has_wfc="F"
       has_gipaw="F"
       core_correction="F"
       functional="PBE"
       z_valence="    5.00"
       total_psenergy="  -9.64483104688E+00"
       rho_cutoff="   6.01000000000E+00"
       l_max="1"
       l_local="-1"
       mesh_size="   602"
       number_of_wfc="0"
       number_of_proj="6"/>
 <PP_MESH>
   <PP_R type="real"  size=" 602" columns="8">
    0.0000    0.0100    0.0200    0.0300    0.0400    0.0500    0.0600    0.0700
    0.0800    0.0900    0.1000    0.1100    0.1200    0.1300    0.1400    0.1500
    0.1600    0.1700    0.1800    0.1900    0.2000    0.2100    0.2200    0.2300
    0.2400    0.2500    0.2600    0.2700    0.2800    0.2900    0.3000    0.3100
    0.3200    0.3300    0.3400    0.3500    0.3600    0.3700    0.3800    0.3900
    0.4000    0.4100    0.4200    0.4300    0.4400    0.4500    0.4600    0.4700
    0.4800    0.4900    0.5000    0.5100    0.5200    0.5300    0.5400    0.5500
    0.5600    0.5700    0.5800    0.5900    0.6000    0.6100    0.6200    0.6300
    0.6400    0.6500    0.6600    0.6700    0.6800    0.6900    0.7000    0.7100
    0.7200    0.7300    0.7400    0.7500    0.7600    0.7700    0.7800    0.7900
    0.8000    0.8100    0.8200    0.8300    0.8400    0.8500    0.8600    0.8700
    0.8800    0.8900    0.9000    0.9100    0.9200    0.9300    0.9400    0.9500
    0.9600    0.9700    0.9800    0.9900    1.0000    1.0100    1.0200    1.0300
    1.0400    1.0500    1.0600    1.0700    1.0800    1.0900    1.1000    1.1100
    1.1200    1.1300    1.1400    1.1500    1.1600    1.1700    1.1800    1.1900
    1.2000    1.2100    1.2200    1.2300    1.2400    1.2500    1.2600    1.2700
    1.2800    1.2900    1.3000    1.3100    1.3200    1.3300    1.3400    1.3500
    1.3600    1.3700    1.3800    1.3900    1.4000    1.4100    1.4200    1.4300
    1.4400    1.4500    1.4600    1.4700    1.4800    1.4900    1.5000    1.5100
    1.5200    1.5300    1.5400    1.5500    1.5600    1.5700    1.5800    1.5900
    1.6000    1.6100    1.6200    1.6300    1.6400    1.6500    1.6600    1.6700
    1.6800    1.6900    1.7000    1.7100    1.7200    1.7300    1.7400    1.7500
    1.7600    1.7700    1.7800    1.7900    1.8000    1.8100    1.8200    1.8300
    1.8400    1.8500    1.8600    1.8700    1.8800    1.8900    1.9000    1.9100
    1.9200    1.9300    1.9400    1.9500    1.9600    1.9700    1.9800    1.9900
    2.0000    2.0100    2.0200    2.0300    2.0400    2.0500    2.0600    2.0700
    2.0800    2.0900    2.1000    2.1100    2.1200    2.1300    2.1400    2.1500
    2.1600    2.1700    2.1800    2.1900    2.2000    2.2100    2.2200    2.2300
    2.2400    2.2500    2.2600    2.2700    2.2800    2.2900    2.3000    2.3100
    2.3200    2.3300    2.3400    2.3500    2.3600    2.3700    2.3800    2.3900
    2.4000    2.4100    2.4200    2.4300    2.4400    2.4500    2.4600    2.4700
    2.4800    2.4900    2.5000    2.5100    2.5200    2.5300    2.5400    2.5500
    2.5600    2.5700    2.5800    2.5900    2.6000    2.6100    2.6200    2.6300
    2.6400    2.6500    2.6600    2.6700    2.6800    2.6900    2.7000    2.7100
    2.7200    2.7300    2.7400    2.7500    2.7600    2.7700    2.7800    2.7900
    2.8000    2.8100    2.8200    2.8300    2.8400    2.8500    2.8600    2.8700
    2.8800    2.8900    2.9000    2.9100    2.9200    2.9300    2.9400    2.9500
    2.9600    2.9700    2.9800    2.9900    3.0000    3.0100    3.0200    3.0300
    3.0400    3.0500    3.0600    3.0700    3.0800    3.0900    3.1000    3.1100
    3.1200    3.1300    3.1400    3.1500    3.1600    3.1700    3.1800    3.1900
    3.2000    3.2100    3.2200    3.2300    3.2400    3.2500    3.2600    3.2700
    3.2800    3.2900    3.3000    3.3100    3.3200    3.3300    3.3400    3.3500
    3.3600    3.3700    3.3800    3.3900    3.4000    3.4100    3.4200    3.4300
    3.4400    3.4500    3.4600    3.4700    3.4800    3.4900    3.5000    3.5100
    3.5200    3.5300    3.5400    3.5500    3.5600    3.5700    3.5800    3.5900
    3.6000    3.6100    3.6200    3.6300    3.6400    3.6500    3.6600    3.6700
    3.6800    3.6900    3.7000    3.7100    3.7200    3.7300    3.7400    3.7500
    3.7600    3.7700    3.7800    3.7900    3.8000    3.8100    3.8200    3.8300
    3.8400    3.8500    3.8600    3.8700    3.8800    3.8900    3.9000    3.9100
    3.9200    3.9300    3.9400    3.9500    3.9600    3.9700    3.9800    3.9900
    4.0000    4.0100    4.0200    4.0300    4.0400    4.0500    4.0600    4.0700
    4.0800    4.0900    4.1000    4.1100    4.1200    4.1300    4.1400    4.1500
    4.1600    4.1700    4.1800    4.1900    4.2000    4.2100    4.2200    4.2300
    4.2400    4.2500    4.2600    4.2700    4.2800    4.2900    4.3000    4.3100
    4.3200    4.3300    4.3400    4.3500    4.3600    4.3700    4.3800    4.3900
    4.4000    4.4100    4.4200    4.4300    4.4400    4.4500    4.4600    4.4700
    4.4800    4.4900    4.5000    4.5100    4.5200    4.5300    4.5400    4.5500
    4.5600    4.5700    4.5800    4.5900    4.6000    4.6100    4.6200    4.6300
    4.6400    4.6500    4.6600    4.6700    4.6800    4.6900    4.7000    4.7100
    4.7200    4.7300    4.7400    4.7500    4.7600    4.7700    4.7800    4.7900
    4.8000    4.8100    4.8200    4.8300    4.8400    4.8500    4.8600    4.8700
    4.8800    4.8900    4.9000    4.9100    4.9200    4.9300    4.9400    4.9500
    4.9600    4.9700    4.9800    4.9900    5.0000    5.0100    5.0200    5.0300
    5.0400    5.0500    5.0600    5.0700    5.0800    5.0900    5.1000    5.1100
    5.1200    5.1300    5.1400    5.1500    5.1600    5.1700    5.1800    5.1900
    5.2000    5.2100    5.2200    5.2300    5.2400    5.2500    5.2600    5.2700
    5.2800    5.2900    5.3000    5.3100    5.3200    5.3300    5.3400    5.3500
    5.3600    5.3700    5.3800    5.3900    5.4000    5.4100    5.4200    5.4300
    5.4400    5.4500    5.4600    5.4700    5.4800    5.4900    5.5000    5.5100
    5.5200    5.5300    5.5400    5.5500    5.5600    5.5700    5.5800    5.5900
    5.6000    5.6100    5.6200    5.6300    5.6400    5.6500    5.6600    5.6700
    5.6800    5.6900    5.7000    5.7100    5.7200    5.7300    5.7400    5.7500
    5.7600    5.7700    5.7800    5.7900    5.8000    5.8100    5.8200    5.8300
    5.8400    5.8500    5.8600    5.8700    5.8800    5.8900    5.9000    5.9100
    5.9200    5.9300    5.9400    5.9500    5.9600    5.9700    5.9800    5.9900
    6.0000    6.0100
   </PP_R>
   <PP_RAB type="real"  size=" 602" columns="8">
    0.0100    0.0100    0.0100    0.0100    0.0100    0.0100    0.0100    0.0100
    0.0100    0.0100    0.0100    0.0100    0.0100    0.0100    0.0100    0.0100
    0.0100    0.0100    0.0100    0.0100    0.0100    0.0100    0.0100    0.0100
    0.0100    0.0100    0.0100    0.0100    0.0100    0.0100    0.0100    0.0100
    0.0100    0.0100    0.0100    0.0100    0.0100    0.0100    0.0100    0.0100
    0.0100    0.0100    0.0100    0.0100    0.0100    0.0100    0.0100    0.0100
    0.0100    0.0100    0.0100    0.0100    0.0100    0.0100    0.0100    0.0100
    0.0100    0.0100    0.0100    0.0100    0.0100    0.0100    0.0100    0.0100
    0.0100    0.0100    0.0100    0.0100    0.0100    0.0100    0.0100    0.0100
    0.0100    0.0100    0.0100    0.0100    0.0100    0.0100    0.0100    0.0100
    0.0100    0.0100    0.0100    0.0100    0.0100    0.0100    0.0100    0.0100
    0.0100    0.0100    0.0100    0.0100    0.0100    0.0100    0.0100    0.0100
    0.0100    0.0100    0.0100    0.0100    0.0100    0.0100    0.0100    0.0100
    0.0100    0.0100    0.0100    0.0100    0.0100    0.0100    0.0100    0.0100
    0.0100    0.0100    0.0100    0.0100    0.0100    0.0100    0.0100    0.0100
    0.0100    0.0100    0.0100    0.0100    0.0100    0.0100    0.0100    0.0100
    0.0100    0.0100    0.0100    0.0100    0.0100    0.0100    0.0100    0.0100
    0.0100    0.0100    0.0100    0.0100    0.0100    0.0100    0.0100    0.0100
    0.0100    0.0100    0.0100    0.0100    0.0100    0.0100    0.0100    0.0100
    0.0100    0.0100    0.0100    0.0100    0.0100    0.0100    0.0100    0.0100
    0.0100    0.0100    0.0100    0.0100    0.0100    0.0100    0.0100    0.0100
    0.0100    0.0100    0.0100    0.0100    0.0100    0.0100    0.0100    0.0100
    0.0100    0.0100    0.0100    0.0100    0.0100    0.0100    0.0100    0.0100
    0.0100    0.0100    0.0100    0.0100    0.0100    0.0100    0.0100    0.0100
    0.0100    0.0100    0.0100    0.0100    0.0100    0.0100    0.0100    0.0100
    0.0100    0.0100    0.0100    0.0100    0.0100    0.0100    0.0100    0.0100
    0.0100    0.0100    0.0100    0.0100    0.0100    0.0100    0.0100    0.0100
    0.0100    0.0100    0.0100    0.0100    0.0100    0.0100    0.0100    0.0100
    0.0100    0.0100    0.0100    0.0100    0.0100    0.0100    0.0100    0.0100
    0.0100    0.0100    0.0100    0.0100    0.0100    0.0100    0.0100    0.0100
    0.0100    0.0100    0.0100    0.0100    0.0100    0.0100    0.0100    0.0100
    0.0100    0.0100    0.0100    0.0100    0.0100    0.0100    0.0100    0.0100
    0.0100    0.0100    0.0100    0.0100    0.0100    0.0100    0.0100    0.0100
    0.0100    0.0100    0.0100    0.0100    0.0100    0.0100    0.0100    0.0100
    0.0100    0.0100    0.0100    0.0100    0.0100    0.0100    0.0100    0.0100
    0.0100    0.0100    0.0100    0.0100    0.0100    0.0100    0.0100    0.0100
    0.0100    0.0100    0.0100    0.0100    0.0100    0.0100    0.0100    0.0100
    0.0100    0.0100    0.0100    0.0100    0.0100    0.0100    0.0100    0.0100
    0.0100    0.0100    0.0100    0.0100    0.0100    0.0100    0.0100    0.0100
    0.0100    0.0100    0.0100    0.0100    0.0100    0.0100    0.0100    0.0100
    0.0100    0.0100    0.0100    0.0100    0.0100    0.0100    0.0100    0.0100
    0.0100    0.0100    0.0100    0.0100    0.0100    0.0100    0.0100    0.0100
    0.0100    0.0100    0.0100    0.0100    0.0100    0.0100    0.0100    0.0100
    0.0100    0.0100    0.0100    0.0100    0.0100    0.0100    0.0100    0.0100
    0.0100    0.0100    0.0100    0.0100    0.0100    0.0100    0.0100    0.0100
    0.0100    0.0100    0.0100    0.0100    0.0100    0.0100    0.0100    0.0100
    0.0100    0.0100    0.0100    0.0100    0.0100    0.0100    0.0100    0.0100
    0.0100    0.0100    0.0100    0.0100    0.0100    0.0100    0.0100    0.0100
    0.0100    0.0100    0.0100    0.0100    0.0100    0.0100    0.0100    0.0100
    0.0100    0.0100    0.0100    0.0100    0.0100    0.0100    0.0100    0.0100
    0.0100    0.0100    0.0100    0.0100    0.0100    0.0100    0.0100    0.0100
    0.0100    0.0100    0.0100    0.0100    0.0100    0.0100    0.0100    0.0100
    0.0100    0.0100    0.0100    0.0100    0.0100    0.0100    0.0100    0.0100
    0.0100    0.0100    0.0100    0.0100    0.0100    0.0100    0.0100    0.0100
    0.0100    0.0100    0.0100    0.0100    0.0100    0.0100    0.0100    0.0100
    0.0100    0.0100    0.0100    0.0100    0.0100    0.0100    0.0100    0.0100
    0.0100    0.0100    0.0100    0.0100    0.0100    0.0100    0.0100    0.0100
    0.0100    0.0100    0.0100    0.0100    0.0100    0.0100    0.0100    0.0100
    0.0100    0.0100    0.0100    0.0100    0.0100    0.0100    0.0100    0.0100
    0.0100    0.0100    0.0100    0.0100    0.0100    0.0100    0.0100    0.0100
    0.0100    0.0100    0.0100    0.0100    0.0100    0.0100    0.0100    0.0100
    0.0100    0.0100    0.0100    0.0100    0.0100    0.0100    0.0100    0.0100
    0.0100    0.0100    0.0100    0.0100    0.0100    0.0100    0.0100    0.0100
    0.0100    0.0100    0.0100    0.0100    0.0100    0.0100    0.0100    0.0100
    0.0100    0.0100    0.0100    0.0100    0.0100    0.0100    0.0100    0.0100
    0.0100    0.0100    0.0100    0.0100    0.0100    0.0100    0.0100    0.0100
    0.0100    0.0100    0.0100    0.0100    0.0100    0.0100    0.0100    0.0100
    0.0100    0.0100    0.0100    0.0100    0.0100    0.0100    0.0100    0.0100
    0.0100    0.0100    0.0100    0.0100    0.0100    0.0100    0.0100    0.0100
    0.0100    0.0100    0.0100    0.0100    0.0100    0.0100    0.0100    0.0100
    0.0100    0.0100    0.0100    0.0100    0.0100    0.0100    0.0100    0.0100
    0.0100    0.0100    0.0100    0.0100    0.0100    0.0100    0.0100    0.0100
    0.0100    0.0100    0.0100    0.0100    0.0100    0.0100    0.0100    0.0100
    0.0100    0.0100    0.0100    0.0100    0.0100    0.0100    0.0100    0.0100
    0.0100    0.0100    0.0100    0.0100    0.0100    0.0100    0.0100    0.0100
    0.0100    0.0100
   </PP_RAB>
 </PP_MESH>
  <PP_LOCAL type="real"  size=" 602" columns="4">
   -1.9607079140E+01   -2.0791205227E+01   -2.1755478855E+01   -2.2378037013E+01
   -2.2537016692E+01   -2.2407692529E+01   -2.2160025532E+01   -2.1892925141E+01
   -2.1648813106E+01   -2.1438609755E+01   -2.1259470447E+01   -2.1104229456E+01
   -2.0965490757E+01   -2.0837023739E+01   -2.0714024093E+01   -2.0592982016E+01
   -2.0471459256E+01   -2.0347877117E+01   -2.0221338159E+01   -2.0091478668E+01
   -1.9958343430E+01   -1.9822276945E+01   -1.9683827566E+01   -1.9543664519E+01
   -1.9402508405E+01   -1.9261076101E+01   -1.9120040281E+01   -1.8980002500E+01
   -1.8841478188E+01   -1.8704890747E+01   -1.8570572052E+01   -1.8438766700E+01
   -1.8309637814E+01   -1.8183272620E+01   -1.8059687038E+01   -1.7938828997E+01
   -1.7820580013E+01   -1.7704756517E+01   -1.7591111176E+01   -1.7479334886E+01
   -1.7369061508E+01   -1.7259875144E+01   -1.7151320933E+01   -1.7042919364E+01
   -1.6934183640E+01   -1.6824639077E+01   -1.6713843098E+01   -1.6601404088E+01
   -1.6486997100E+01   -1.6370376413E+01   -1.6251381617E+01   -1.6129938246E+01
   -1.6006053847E+01   -1.5879809947E+01   -1.5751348546E+01   -1.5620860194E+01
   -1.5488568467E+01   -1.5354717260E+01   -1.5219558435E+01   -1.5083342026E+01
   -1.4946308747E+01   -1.4808684012E+01   -1.4670675445E+01   -1.4532470238E+01
   -1.4394235304E+01   -1.4256118299E+01   -1.4118248141E+01   -1.3980737321E+01
   -1.3843683898E+01   -1.3707173550E+01   -1.3571280977E+01   -1.3436072285E+01
   -1.3301606384E+01   -1.3167936387E+01   -1.3035110820E+01   -1.2903174540E+01
   -1.2772169616E+01   -1.2642135981E+01   -1.2513111918E+01   -1.2385134444E+01
   -1.2258239587E+01   -1.2132462572E+01   -1.2007837944E+01   -1.1884399621E+01
   -1.1762180908E+01   -1.1641214463E+01   -1.1521532242E+01   -1.1403165411E+01
   -1.1286144246E+01   -1.1170498010E+01   -1.1056254828E+01   -1.0943441548E+01
   -1.0832083593E+01   -1.0722204822E+01   -1.0613827371E+01   -1.0506971503E+01
   -1.0401655520E+01   -1.0297895463E+01   -1.0195705036E+01   -1.0095095473E+01
   -9.9960753665E+00   -9.8986505188E+00   -9.8028238036E+00   -9.7085952136E+00
   -9.6159610858E+00   -9.5249145344E+00   -9.4354451358E+00   -9.3475387901E+00
   -9.2611779874E+00   -9.1763404414E+00   -9.0930000036E+00   -9.0111263154E+00
   -8.9306853968E+00   -8.8516414724E+00   -8.7739603383E+00   -8.6976089226E+00
   -8.6225552168E+00   -8.5487686336E+00   -8.4762195424E+00   -8.4048791897E+00
   -8.3347197337E+00   -8.2657143977E+00   -8.1978370493E+00   -8.1310621326E+00
   -8.0653651293E+00   -8.0007219765E+00   -7.9371090603E+00   -7.8745036049E+00
   -7.8128832366E+00   -7.7522259059E+00   -7.6925103168E+00   -7.6337154741E+00
   -7.5758206746E+00   -7.5188059201E+00   -7.4626514034E+00   -7.4073377226E+00
   -7.3528460617E+00   -7.2991577333E+00   -7.2462546897E+00   -7.1941192517E+00
   -7.1427339507E+00   -7.0920821416E+00   -7.0421472257E+00   -6.9929133251E+00
   -6.9443649757E+00   -6.8964869639E+00   -6.8492649945E+00   -6.8026846803E+00
   -6.7567326874E+00   -6.7113957383E+00   -6.6666611930E+00   -6.6225169881E+00
   -6.5789512158E+00   -6.5359532048E+00   -6.4935121553E+00   -6.4516182175E+00
   -6.4102613422E+00   -6.3694314448E+00   -6.3291185183E+00   -6.2893130114E+00
   -6.2500053451E+00   -6.2111860079E+00   -6.1728458471E+00   -6.1349760099E+00
   -6.0975679567E+00   -6.0606133749E+00   -6.0241041076E+00   -5.9880319596E+00
   -5.9523892044E+00   -5.9171681832E+00   -5.8823615377E+00   -5.8479619229E+00
   -5.8139623074E+00   -5.7803557031E+00   -5.7471353763E+00   -5.7142946843E+00
   -5.6818271608E+00   -5.6497265025E+00   -5.6179864828E+00   -5.5866011317E+00
   -5.5555644368E+00   -5.5248707548E+00   -5.4945142654E+00   -5.4644896400E+00
   -5.4347912426E+00   -5.4054140026E+00   -5.3763525651E+00   -5.3476019938E+00
   -5.3191572495E+00   -5.2910135053E+00   -5.2631660369E+00   -5.2356101079E+00
   -5.2083413026E+00   -5.1813549649E+00   -5.1546469253E+00   -5.1282127497E+00
   -5.1020483430E+00   -5.0761495691E+00   -5.0505123624E+00   -5.0251328905E+00
   -5.0000071101E+00   -4.9751314182E+00   -4.9505019734E+00   -4.9261151964E+00
   -4.9019675385E+00   -4.8780554017E+00   -4.8543754984E+00   -4.8309243154E+00
   -4.8076986610E+00   -4.7846952771E+00   -4.7619109227E+00   -4.7393426058E+00
   -4.7169871248E+00   -4.6948415913E+00   -4.6729030451E+00   -4.6511685228E+00
   -4.6296353135E+00   -4.6083005122E+00   -4.5871614601E+00   -4.5662155020E+00
   -4.5454598830E+00   -4.5248921598E+00   -4.5045097129E+00   -4.4843100477E+00
   -4.4642907970E+00   -4.4444494243E+00   -4.4247836711E+00   -4.4052912188E+00
   -4.3859696811E+00   -4.3668169465E+00   -4.3478307486E+00   -4.3290089020E+00
   -4.3103493676E+00   -4.2918499562E+00   -4.2735086634E+00   -4.2553235184E+00
   -4.2372924122E+00   -4.2194134999E+00   -4.2016848707E+00   -4.1841045201E+00
   -4.1666707199E+00   -4.1493816177E+00   -4.1322353416E+00   -4.1152302340E+00
   -4.0983645161E+00   -4.0816364330E+00   -4.0650443965E+00   -4.0485867016E+00
   -4.0322616953E+00   -4.0160678582E+00   -4.0000035593E+00   -3.9840672334E+00
   -3.9682574294E+00   -3.9525725908E+00   -3.9370112262E+00   -3.9215719532E+00
   -3.9062532897E+00   -3.8910538056E+00   -3.8759721871E+00   -3.8610070266E+00
   -3.8461569437E+00   -3.8314206928E+00   -3.8167969415E+00   -3.8022843477E+00
   -3.7878817342E+00   -3.7735878436E+00   -3.7594013626E+00   -3.7453211814E+00
   -3.7313461101E+00   -3.7174748791E+00   -3.7037064212E+00   -3.6900396099E+00
   -3.6764732487E+00   -3.6630062746E+00   -3.6496376334E+00   -3.6363662039E+00
   -3.6231909180E+00   -3.6101107927E+00   -3.5971247837E+00   -3.5842318105E+00
   -3.5714309596E+00   -3.5587212479E+00   -3.5461016260E+00   -3.5335711986E+00
   -3.5211290439E+00   -3.5087741882E+00   -3.4965057044E+00   -3.4843227441E+00
   -3.4722244115E+00   -3.4602097431E+00   -3.4482779599E+00   -3.4364282100E+00
   -3.4246595966E+00   -3.4129713014E+00   -3.4013625456E+00   -3.3898325112E+00
   -3.3783803275E+00   -3.3670052869E+00   -3.3557066148E+00   -3.3444834966E+00
   -3.3333351822E+00   -3.3222609683E+00   -3.3112601164E+00   -3.3003318221E+00
   -3.2894754426E+00   -3.2786902770E+00   -3.2679755977E+00   -3.2573306880E+00
   -3.2467549239E+00   -3.2362476341E+00   -3.2258081020E+00   -3.2154356987E+00
   -3.2051298080E+00   -3.1948897901E+00   -3.1847149434E+00   -3.1746047143E+00
   -3.1645584963E+00   -3.1545756661E+00   -3.1446555802E+00   -3.1347977087E+00
   -3.1250014702E+00   -3.1152662572E+00   -3.1055914852E+00   -3.0959766386E+00
   -3.0864211630E+00   -3.0769244693E+00   -3.0674860223E+00   -3.0581053224E+00
   -3.0487818408E+00   -3.0395150088E+00   -3.0303043318E+00   -3.0211493274E+00
   -3.0120494917E+00   -3.0030042781E+00   -2.9940132238E+00   -2.9850758659E+00
   -2.9761917238E+00   -2.9673602747E+00   -2.9585810799E+00   -2.9498536975E+00
   -2.9411776694E+00   -2.9325524981E+00   -2.9239777610E+00   -2.9154530395E+00
   -2.9069778968E+00   -2.8985518619E+00   -2.8901745218E+00   -2.8818454824E+00
   -2.8735643272E+00   -2.8653306136E+00   -2.8571439312E+00   -2.8490039119E+00
   -2.8409101586E+00   -2.8328622585E+00   -2.8248597979E+00   -2.8169024357E+00
   -2.8089897934E+00   -2.8011214893E+00   -2.7932971012E+00   -2.7855163157E+00
   -2.7777787719E+00   -2.7700841088E+00   -2.7624319265E+00   -2.7548219043E+00
   -2.7472537096E+00   -2.7397269984E+00   -2.7322414044E+00   -2.7247965846E+00
   -2.7173922389E+00   -2.7100280390E+00   -2.7027036544E+00   -2.6954187155E+00
   -2.6881729542E+00   -2.6809660577E+00   -2.6737977132E+00   -2.6666675788E+00
   -2.6595753609E+00   -2.6525207801E+00   -2.6455035380E+00   -2.6385233306E+00
   -2.6315798272E+00   -2.6246727833E+00   -2.6178019145E+00   -2.6109669366E+00
   -2.6041675390E+00   -2.5974034516E+00   -2.5906744227E+00   -2.5839801813E+00
   -2.5773204563E+00   -2.5706949345E+00   -2.5641033979E+00   -2.5575455893E+00
   -2.5510212501E+00   -2.5445301080E+00   -2.5380718928E+00   -2.5316463874E+00
   -2.5252533454E+00   -2.5188925205E+00   -2.5125636405E+00   -2.5062664747E+00
   -2.5000008050E+00   -2.4937663964E+00   -2.4875630141E+00   -2.4813903890E+00
   -2.4752483223E+00   -2.4691365971E+00   -2.4630549894E+00   -2.4570032746E+00
   -2.4509811905E+00   -2.4449885623E+00   -2.4390251764E+00   -2.4330908193E+00
   -2.4271852724E+00   -2.4213082946E+00   -2.4154597160E+00   -2.4096393331E+00
   -2.4038469423E+00   -2.3980823327E+00   -2.3923452787E+00   -2.3866356170E+00
   -2.3809531536E+00   -2.3752976944E+00   -2.3696690383E+00   -2.3640669694E+00
   -2.3584913329E+00   -2.3529419437E+00   -2.3474186169E+00   -2.3419211627E+00
   -2.3364493700E+00   -2.3310030938E+00   -2.3255821579E+00   -2.3201863857E+00
   -2.3148156009E+00   -2.3094695919E+00   -2.3041482254E+00   -2.2988513332E+00
   -2.2935787471E+00   -2.2883302989E+00   -2.2831057921E+00   -2.2779050864E+00
   -2.2727280280E+00   -2.2675744566E+00   -2.2624442117E+00   -2.2573371135E+00
   -2.2522530104E+00   -2.2471917643E+00   -2.2421532223E+00   -2.2371372315E+00
   -2.2321436303E+00   -2.2271722516E+00   -2.2222229743E+00   -2.2172956525E+00
   -2.2123901405E+00   -2.2075062925E+00   -2.2026439341E+00   -2.1978029504E+00
   -2.1929832059E+00   -2.1881845619E+00   -2.1834068792E+00   -2.1786500044E+00
   -2.1739137983E+00   -2.1691981458E+00   -2.1645029145E+00   -2.1598279719E+00
   -2.1551731854E+00   -2.1505383935E+00   -2.1459234968E+00   -2.1413283705E+00
   -2.1367528884E+00   -2.1321969242E+00   -2.1276603399E+00   -2.1231430039E+00
   -2.1186448148E+00   -2.1141656520E+00   -2.1097053951E+00   -2.1052639237E+00
   -2.1008410954E+00   -2.0964368079E+00   -2.0920509543E+00   -2.0876834196E+00
   -2.0833340889E+00   -2.0790028465E+00   -2.0746895511E+00   -2.0703941209E+00
   -2.0661164462E+00   -2.0618564175E+00   -2.0576139255E+00   -2.0533888529E+00
   -2.0491810785E+00   -2.0449905186E+00   -2.0408170688E+00   -2.0366606248E+00
   -2.0325210821E+00   -2.0283983244E+00   -2.0242922454E+00   -2.0202027614E+00
   -2.0161297729E+00   -2.0120731804E+00   -2.0080328843E+00   -2.0040087712E+00
   -2.0000007446E+00   -1.9960087228E+00   -1.9920326110E+00   -1.9880723142E+00
   -1.9841277376E+00   -1.9801987721E+00   -1.9762853270E+00   -1.9723873240E+00
   -1.9685046728E+00   -1.9646372828E+00   -1.9607850636E+00   -1.9569479124E+00
   -1.9531257395E+00   -1.9493184722E+00   -1.9455260243E+00   -1.9417483094E+00
   -1.9379852413E+00   -1.9342367248E+00   -1.9305026678E+00   -1.9267830042E+00
   -1.9230776517E+00   -1.9193865283E+00   -1.9157095516E+00   -1.9120466356E+00
   -1.9083976818E+00   -1.9047626324E+00   -1.9011414090E+00   -1.8975339332E+00
   -1.8939401266E+00   -1.8903599108E+00   -1.8867931864E+00   -1.8832398963E+00
   -1.8796999686E+00   -1.8761733285E+00   -1.8726599014E+00   -1.8691596123E+00
   -1.8656723743E+00   -1.8621981156E+00   -1.8587367760E+00   -1.8552882844E+00
   -1.8518525695E+00   -1.8484295599E+00   -1.8450191821E+00   -1.8416213471E+00
   -1.8382360073E+00   -1.8348630948E+00   -1.8315025415E+00   -1.8281542797E+00
   -1.8248182413E+00   -1.8214943448E+00   -1.8181825288E+00   -1.8148827374E+00
   -1.8115949059E+00   -1.8083189693E+00   -1.8050548631E+00   -1.8018025218E+00
   -1.7985618603E+00   -1.7953328376E+00   -1.7921153922E+00   -1.7889094622E+00
   -1.7857149859E+00   -1.7825319015E+00   -1.7793601395E+00   -1.7761996333E+00
   -1.7730503376E+00   -1.7699121935E+00   -1.7667851421E+00   -1.7636691246E+00
   -1.7605640821E+00   -1.7574699427E+00   -1.7543866542E+00   -1.7513141685E+00
   -1.7482524293E+00   -1.7452013806E+00   -1.7421609662E+00   -1.7391311300E+00
   -1.7361117995E+00   -1.7331029329E+00   -1.7301044808E+00   -1.7271163895E+00
   -1.7241386056E+00   -1.7211710755E+00   -1.7182137457E+00   -1.7152665450E+00
   -1.7123294378E+00   -1.7094023750E+00   -1.7064853055E+00   -1.7035781785E+00
   -1.7006809428E+00   -1.6977935475E+00   -1.6949159238E+00   -1.6920480388E+00
   -1.6891898456E+00   -1.6863412954E+00   -1.6835023397E+00   -1.6806729298E+00
   -1.6778530170E+00   -1.6750425367E+00   -1.6722414551E+00   -1.6694497289E+00
   -1.6666673116E+00   -1.6638941568E+00
  </PP_LOCAL>
 <PP_NONLOCAL>
   <PP_BETA.1
       type="real"
       size=" 602"
       columns="4"
       index="1"
       angular_momentum="0"
       cutoff_radius_index=" 164"
       cutoff_radius="    1.6300000000E+00" >
    0.0000000000E+00    3.4005652719E-02    6.7831672963E-02    1.0129874692E-01
    1.3422820271E-01    1.6644234288E-01    1.9776479038E-01    2.2802085221E-01
    2.5703790439E-01    2.8464580173E-01    3.1067731502E-01    3.3496859803E-01
    3.5735968588E-01    3.7769502582E-01    3.9582404047E-01    4.1160172317E-01
    4.2488926403E-01    4.3555470472E-01    4.4347361880E-01    4.4852981471E-01
    4.5061605541E-01    4.4963479233E-01    4.4549890423E-01    4.3813243776E-01
    4.2747133982E-01    4.1346417897E-01    3.9607283900E-01    3.7527318983E-01
    3.5105571180E-01    3.2342607751E-01    2.9240567621E-01    2.5803207337E-01
    2.2035939463E-01    1.7945863490E-01    1.3541787432E-01    8.8342391747E-02
    3.8354693382E-02   -1.4405586387E-02   -6.9781889595E-02   -1.2760104928E-01
   -1.8767373943E-01   -2.4979503807E-01   -3.1374511643E-01   -3.7929005210E-01
   -4.4618276467E-01   -5.1416407118E-01   -5.8296385756E-01   -6.5230236052E-01
   -7.2189152562E-01   -7.9143655115E-01   -8.6063742894E-01   -9.2919055774E-01
   -9.9679046868E-01   -1.0631317418E+00   -1.1279105190E+00   -1.1908267236E+00
   -1.2515855969E+00   -1.3098997951E+00   -1.3654910679E+00   -1.4180923165E+00
   -1.4674489389E+00   -1.5133212942E+00   -1.5554853858E+00   -1.5937353476E+00
   -1.6278844800E+00   -1.6577662428E+00   -1.6832363014E+00   -1.7041731271E+00
   -1.7204788602E+00   -1.7320799197E+00   -1.7389285392E+00   -1.7410022776E+00
   -1.7383045684E+00   -1.7308648083E+00   -1.7187381501E+00   -1.7020055242E+00