<UPF version="2.0.1">
  <PP_INFO>

 Na_ONCV_PBE_FR-1.0.upf

 This pseudopotential file has been produced using the code
 ONCVPSP  (Optimized Norm-Conservinng Vanderbilt PSeudopotential)
 fully-relativistic version 2.1.1, 03/26/2014 by D. R. Hamann
 The code is available through a link at URL www.mat-simresearch.com.
 Documentation with the package provides a full description of the
 input data below.

 While it is not required under the terms of the GNU GPL, it is
 suggested that you cite D. R. Hamann, Phys. Rev. B 88, 085117 (2013)
 in any publication using these pseudopotentials.

 -----

 This pseudopotential was produced with the SG15 1.0 and/or 1.1
 parameter sets, the Schlipf-Gygi norm-conserving pseudopotential
 library. For details of the construction and testing of the
 pseudopotential please refer to:

 M. Schlipf, F. Gygi, Comp. Phys. Comm. 196, 36 (2015)
 http://dx.doi.org/10.1016/j.cpc.2015.05.011

 The above authors kindly ask that you include this reference in all
 publications associated to this pseudopotential.

 Please note this fully-relativistic version does not employ the
 above self-consistent procedure at the fully-relativistic level.

 -----

 This pseudopotential was produced by Peter Scherpelz for the purpose
 of performing GW calculations with spin-orbit-coupling. Please see
 the publication:

 P. Scherpelz, M. Govoni, I. Hamada, G. Galli; J. Chem. Theory Comput. (2016)
 http://dx.doi.org/10.1021/acs.jctc.6b00114

 If you use these pseudopotentials in your work, we also kindly ask
 that you cite the above publication.

 -----

 This work is licensed under the Creative Commons Attribution-ShareAlike 
 4.0 International License. To view a copy of this license, visit 
 http://creativecommons.org/licenses/by-sa/4.0/ or send a letter to 
 Creative Commons, PO Box 1866, Mountain View, CA 94042, USA.

 The SG15 library is Copyright 2015 The Regents of the University of
 California.  Further modifications of these files are Copyright 2016
 Peter Scherpelz.

    <PP_INPUTFILE>
# ATOM AND REFERENCE CONFIGURATION
# atsym  z    nc    nv    iexc   psfile
  Na 11.00     1     3     4      upf
#
#   n    l    f        energy (Ha)
    1    0    2.00
    2    0    2.00
    2    1    6.00
    3    0    1.00
#
# PSEUDOPOTENTIAL AND OPTIMIZATION
# lmax
    1
#
#   l,   rc,     ep,   ncon, nbas, qcut
    0    1.46   -2.09    5    8   11.35
    1    2.30   -1.05    5    8    6.71
#
# LOCAL POTENTIAL
# lloc, lpopt,  rc(5),   dvloc0
    4    5      1.31       0.00
#
# VANDERBILT-KLEINMAN-BYLANDER PROJECTORs
# l, nproj, debl
    0    2    1.9847
    1    2    1.0241
#
# MODEL CORE CHARGE
# icmod, fcfact
    0    0.00
#
# LOG DERIVATIVE ANALYSIS
# epsh1, epsh2, depsh
   -5.00    3.00    0.02
#
# OUTPUT GRID
# rlmax, drl
    6.00    0.01
#
# TEST CONFIGURATIONS
# ncnf
    0
# nvcnf
#   n    l    f
    </PP_INPUTFILE>
  </PP_INFO>
  <!--                               -->
  <!-- END OF HUMAN READABLE SECTION -->
  <!--                               -->
    <PP_HEADER
       generated="Generated using ONCVPSP code by D. R. Hamann"
       author="anonymous"
       date="150703"
       comment=""
       element="Na"
       pseudo_type="NC"
       relativistic="full"
       is_ultrasoft="F"
       is_paw="F"
       is_coulomb="F"
       has_so="T"
       has_wfc="F"
       has_gipaw="F"
       core_correction="F"
       functional="PBE"
       z_valence="    9.00"
       total_psenergy="  -4.25515272866E+01"
       rho_cutoff="   6.01000000000E+00"
       l_max="1"
       l_local="-1"
       mesh_size="   602"
       number_of_wfc="0"
       number_of_proj="6"/>
 <PP_MESH>
   <PP_R type="real"  size=" 602" columns="8">
    0.0000    0.0100    0.0200    0.0300    0.0400    0.0500    0.0600    0.0700
    0.0800    0.0900    0.1000    0.1100    0.1200    0.1300    0.1400    0.1500
    0.1600    0.1700    0.1800    0.1900    0.2000    0.2100    0.2200    0.2300
    0.2400    0.2500    0.2600    0.2700    0.2800    0.2900    0.3000    0.3100
    0.3200    0.3300    0.3400    0.3500    0.3600    0.3700    0.3800    0.3900
    0.4000    0.4100    0.4200    0.4300    0.4400    0.4500    0.4600    0.4700
    0.4800    0.4900    0.5000    0.5100    0.5200    0.5300    0.5400    0.5500
    0.5600    0.5700    0.5800    0.5900    0.6000    0.6100    0.6200    0.6300
    0.6400    0.6500    0.6600    0.6700    0.6800    0.6900    0.7000    0.7100
    0.7200    0.7300    0.7400    0.7500    0.7600    0.7700    0.7800    0.7900
    0.8000    0.8100    0.8200    0.8300    0.8400    0.8500    0.8600    0.8700
    0.8800    0.8900    0.9000    0.9100    0.9200    0.9300    0.9400    0.9500
    0.9600    0.9700    0.9800    0.9900    1.0000    1.0100    1.0200    1.0300
    1.0400    1.0500    1.0600    1.0700    1.0800    1.0900    1.1000    1.1100
    1.1200    1.1300    1.1400    1.1500    1.1600    1.1700    1.1800    1.1900
    1.2000    1.2100    1.2200    1.2300    1.2400    1.2500    1.2600    1.2700
    1.2800    1.2900    1.3000    1.3100    1.3200    1.3300    1.3400    1.3500
    1.3600    1.3700    1.3800    1.3900    1.4000    1.4100    1.4200    1.4300
    1.4400    1.4500    1.4600    1.4700    1.4800    1.4900    1.5000    1.5100
    1.5200    1.5300    1.5400    1.5500    1.5600    1.5700    1.5800    1.5900
    1.6000    1.6100    1.6200    1.6300    1.6400    1.6500    1.6600    1.6700
    1.6800    1.6900    1.7000    1.7100    1.7200    1.7300    1.7400    1.7500
    1.7600    1.7700    1.7800    1.7900    1.8000    1.8100    1.8200    1.8300
    1.8400    1.8500    1.8600    1.8700    1.8800    1.8900    1.9000    1.9100
    1.9200    1.9300    1.9400    1.9500    1.9600    1.9700    1.9800    1.9900
    2.0000    2.0100    2.0200    2.0300    2.0400    2.0500    2.0600    2.0700
    2.0800    2.0900    2.1000    2.1100    2.1200    2.1300    2.1400    2.1500
    2.1600    2.1700    2.1800    2.1900    2.2000    2.2100    2.2200    2.2300
    2.2400    2.2500    2.2600    2.2700    2.2800    2.2900    2.3000    2.3100
    2.3200    2.3300    2.3400    2.3500    2.3600    2.3700    2.3800    2.3900
    2.4000    2.4100    2.4200    2.4300    2.4400    2.4500    2.4600    2.4700
    2.4800    2.4900    2.5000    2.5100    2.5200    2.5300    2.5400    2.5500
    2.5600    2.5700    2.5800    2.5900    2.6000    2.6100    2.6200    2.6300
    2.6400    2.6500    2.6600    2.6700    2.6800    2.6900    2.7000    2.7100
    2.7200    2.7300    2.7400    2.7500    2.7600    2.7700    2.7800    2.7900
    2.8000    2.8100    2.8200    2.8300    2.8400    2.8500    2.8600    2.8700
    2.8800    2.8900    2.9000    2.9100    2.9200    2.9300    2.9400    2.9500
    2.9600    2.9700    2.9800    2.9900    3.0000    3.0100    3.0200    3.0300
    3.0400    3.0500    3.0600    3.0700    3.0800    3.0900    3.1000    3.1100
    3.1200    3.1300    3.1400    3.1500    3.1600    3.1700    3.1800    3.1900
    3.2000    3.2100    3.2200    3.2300    3.2400    3.2500    3.2600    3.2700
    3.2800    3.2900    3.3000    3.3100    3.3200    3.3300    3.3400    3.3500
    3.3600    3.3700    3.3800    3.3900    3.4000    3.4100    3.4200    3.4300
    3.4400    3.4500    3.4600    3.4700    3.4800    3.4900    3.5000    3.5100
    3.5200    3.5300    3.5400    3.5500    3.5600    3.5700    3.5800    3.5900
    3.6000    3.6100    3.6200    3.6300    3.6400    3.6500    3.6600    3.6700
    3.6800    3.6900    3.7000    3.7100    3.7200    3.7300    3.7400    3.7500
    3.7600    3.7700    3.7800    3.7900    3.8000    3.8100    3.8200    3.8300
    3.8400    3.8500    3.8600    3.8700    3.8800    3.8900    3.9000    3.9100
    3.9200    3.9300    3.9400    3.9500    3.9600    3.9700    3.9800    3.9900
    4.0000    4.0100    4.0200    4.0300    4.0400    4.0500    4.0600    4.0700
    4.0800    4.0900    4.1000    4.1100    4.1200    4.1300    4.1400    4.1500
    4.1600    4.1700    4.1800    4.1900    4.2000    4.2100    4.2200    4.2300
    4.2400    4.2500    4.2600    4.2700    4.2800    4.2900    4.3000    4.3100
    4.3200    4.3300    4.3400    4.3500    4.3600    4.3700    4.3800    4.3900
    4.4000    4.4100    4.4200    4.4300    4.4400    4.4500    4.4600    4.4700
    4.4800    4.4900    4.5000    4.5100    4.5200    4.5300    4.5400    4.5500
    4.5600    4.5700    4.5800    4.5900    4.6000    4.6100    4.6200    4.6300
    4.6400    4.6500    4.6600    4.6700    4.6800    4.6900    4.7000    4.7100
    4.7200    4.7300    4.7400    4.7500    4.7600    4.7700    4.7800    4.7900
    4.8000    4.8100    4.8200    4.8300    4.8400    4.8500    4.8600    4.8700
    4.8800    4.8900    4.9000    4.9100    4.9200    4.9300    4.9400    4.9500
    4.9600    4.9700    4.9800    4.9900    5.0000    5.0100    5.0200    5.0300
    5.0400    5.0500    5.0600    5.0700    5.0800    5.0900    5.1000    5.1100
    5.1200    5.1300    5.1400    5.1500    5.1600    5.1700    5.1800    5.1900
    5.2000    5.2100    5.2200    5.2300    5.2400    5.2500    5.2600    5.2700
    5.2800    5.2900    5.3000    5.3100    5.3200    5.3300    5.3400    5.3500
    5.3600    5.3700    5.3800    5.3900    5.4000    5.4100    5.4200    5.4300
    5.4400    5.4500    5.4600    5.4700    5.4800    5.4900    5.5000    5.5100
    5.5200    5.5300    5.5400    5.5500    5.5600    5.5700    5.5800    5.5900
    5.6000    5.6100    5.6200    5.6300    5.6400    5.6500    5.6600    5.6700
    5.6800    5.6900    5.7000    5.7100    5.7200    5.7300    5.7400    5.7500
    5.7600    5.7700    5.7800    5.7900    5.8000    5.8100    5.8200    5.8300
    5.8400    5.8500    5.8600    5.8700    5.8800    5.8900    5.9000    5.9100
    5.9200    5.9300    5.9400    5.9500    5.9600    5.9700    5.9800    5.9900
    6.0000    6.0100
   </PP_R>
   <PP_RAB type="real"  size=" 602" columns="8">
    0.0100    0.0100    0.0100    0.0100    0.0100    0.0100    0.0100    0.0100
    0.0100    0.0100    0.0100    0.0100    0.0100    0.0100    0.0100    0.0100
    0.0100    0.0100    0.0100    0.0100    0.0100    0.0100    0.0100    0.0100
    0.0100    0.0100    0.0100    0.0100    0.0100    0.0100    0.0100    0.0100
    0.0100    0.0100    0.0100    0.0100    0.0100    0.0100    0.0100    0.0100
    0.0100    0.0100    0.0100    0.0100    0.0100    0.0100    0.0100    0.0100
    0.0100    0.0100    0.0100    0.0100    0.0100    0.0100    0.0100    0.0100
    0.0100    0.0100    0.0100    0.0100    0.0100    0.0100    0.0100    0.0100
    0.0100    0.0100    0.0100    0.0100    0.0100    0.0100    0.0100    0.0100
    0.0100    0.0100    0.0100    0.0100    0.0100    0.0100    0.0100    0.0100
    0.0100    0.0100    0.0100    0.0100    0.0100    0.0100    0.0100    0.0100
    0.0100    0.0100    0.0100    0.0100    0.0100    0.0100    0.0100    0.0100
    0.0100    0.0100    0.0100    0.0100    0.0100    0.0100    0.0100    0.0100
    0.0100    0.0100    0.0100    0.0100    0.0100    0.0100    0.0100    0.0100
    0.0100    0.0100    0.0100    0.0100    0.0100    0.0100    0.0100    0.0100
    0.0100    0.0100    0.0100    0.0100    0.0100    0.0100    0.0100    0.0100
    0.0100    0.0100    0.0100    0.0100    0.0100    0.0100    0.0100    0.0100
    0.0100    0.0100    0.0100    0.0100    0.0100    0.0100    0.0100    0.0100
    0.0100    0.0100    0.0100    0.0100    0.0100    0.0100    0.0100    0.0100
    0.0100    0.0100    0.0100    0.0100    0.0100    0.0100    0.0100    0.0100
    0.0100    0.0100    0.0100    0.0100    0.0100    0.0100    0.0100    0.0100
    0.0100    0.0100    0.0100    0.0100    0.0100    0.0100    0.0100    0.0100
    0.0100    0.0100    0.0100    0.0100    0.0100    0.0100    0.0100    0.0100
    0.0100    0.0100    0.0100    0.0100    0.0100    0.0100    0.0100    0.0100
    0.0100    0.0100    0.0100    0.0100    0.0100    0.0100    0.0100    0.0100
    0.0100    0.0100    0.0100    0.0100    0.0100    0.0100    0.0100    0.0100
    0.0100    0.0100    0.0100    0.0100    0.0100    0.0100    0.0100    0.0100
    0.0100    0.0100    0.0100    0.0100    0.0100    0.0100    0.0100    0.0100
    0.0100    0.0100    0.0100    0.0100    0.0100    0.0100    0.0100    0.0100
    0.0100    0.0100    0.0100    0.0100    0.0100    0.0100    0.0100    0.0100
    0.0100    0.0100    0.0100    0.0100    0.0100    0.0100    0.0100    0.0100
    0.0100    0.0100    0.0100    0.0100    0.0100    0.0100    0.0100    0.0100
    0.0100    0.0100    0.0100    0.0100    0.0100    0.0100    0.0100    0.0100
    0.0100    0.0100    0.0100    0.0100    0.0100    0.0100    0.0100    0.0100
    0.0100    0.0100    0.0100    0.0100    0.0100    0.0100    0.0100    0.0100
    0.0100    0.0100    0.0100    0.0100    0.0100    0.0100    0.0100    0.0100
    0.0100    0.0100    0.0100    0.0100    0.0100    0.0100    0.0100    0.0100
    0.0100    0.0100    0.0100    0.0100    0.0100    0.0100    0.0100    0.0100
    0.0100    0.0100    0.0100    0.0100    0.0100    0.0100    0.0100    0.0100
    0.0100    0.0100    0.0100    0.0100    0.0100    0.0100    0.0100    0.0100
    0.0100    0.0100    0.0100    0.0100    0.0100    0.0100    0.0100    0.0100
    0.0100    0.0100    0.0100    0.0100    0.0100    0.0100    0.0100    0.0100
    0.0100    0.0100    0.0100    0.0100    0.0100    0.0100    0.0100    0.0100
    0.0100    0.0100    0.0100    0.0100    0.0100    0.0100    0.0100    0.0100
    0.0100    0.0100    0.0100    0.0100    0.0100    0.0100    0.0100    0.0100
    0.0100    0.0100    0.0100    0.0100    0.0100    0.0100    0.0100    0.0100
    0.0100    0.0100    0.0100    0.0100    0.0100    0.0100    0.0100    0.0100
    0.0100    0.0100    0.0100    0.0100    0.0100    0.0100    0.0100    0.0100
    0.0100    0.0100    0.0100    0.0100    0.0100    0.0100    0.0100    0.0100
    0.0100    0.0100    0.0100    0.0100    0.0100    0.0100    0.0100    0.0100
    0.0100    0.0100    0.0100    0.0100    0.0100    0.0100    0.0100    0.0100
    0.0100    0.0100    0.0100    0.0100    0.0100    0.0100    0.0100    0.0100
    0.0100    0.0100    0.0100    0.0100    0.0100    0.0100    0.0100    0.0100
    0.0100    0.0100    0.0100    0.0100    0.0100    0.0100    0.0100    0.0100
    0.0100    0.0100    0.0100    0.0100    0.0100    0.0100    0.0100    0.0100
    0.0100    0.0100    0.0100    0.0100    0.0100    0.0100    0.0100    0.0100
    0.0100    0.0100    0.0100    0.0100    0.0100    0.0100    0.0100    0.0100
    0.0100    0.0100    0.0100    0.0100    0.0100    0.0100    0.0100    0.0100
    0.0100    0.0100    0.0100    0.0100    0.0100    0.0100    0.0100    0.0100
    0.0100    0.0100    0.0100    0.0100    0.0100    0.0100    0.0100    0.0100
    0.0100    0.0100    0.0100    0.0100    0.0100    0.0100    0.0100    0.0100
    0.0100    0.0100    0.0100    0.0100    0.0100    0.0100    0.0100    0.0100
    0.0100    0.0100    0.0100    0.0100    0.0100    0.0100    0.0100    0.0100
    0.0100    0.0100    0.0100    0.0100    0.0100    0.0100    0.0100    0.0100
    0.0100    0.0100    0.0100    0.0100    0.0100    0.0100    0.0100    0.0100
    0.0100    0.0100    0.0100    0.0100    0.0100    0.0100    0.0100    0.0100
    0.0100    0.0100    0.0100    0.0100    0.0100    0.0100    0.0100    0.0100
    0.0100    0.0100    0.0100    0.0100    0.0100    0.0100    0.0100    0.0100
    0.0100    0.0100    0.0100    0.0100    0.0100    0.0100    0.0100    0.0100
    0.0100    0.0100    0.0100    0.0100    0.0100    0.0100    0.0100    0.0100
    0.0100    0.0100    0.0100    0.0100    0.0100    0.0100    0.0100    0.0100
    0.0100    0.0100    0.0100    0.0100    0.0100    0.0100    0.0100    0.0100
    0.0100    0.0100    0.0100    0.0100    0.0100    0.0100    0.0100    0.0100
    0.0100    0.0100    0.0100    0.0100    0.0100    0.0100    0.0100    0.0100
    0.0100    0.0100    0.0100    0.0100    0.0100    0.0100    0.0100    0.0100
    0.0100    0.0100
   </PP_RAB>
 </PP_MESH>
  <PP_LOCAL type="real"  size=" 602" columns="4">
   -2.8976127984E+01   -2.8974876252E+01   -2.8971258448E+01   -2.8965107678E+01
   -2.8956257047E+01   -2.8944499782E+01   -2.8929610668E+01   -2.8911367327E+01
   -2.8889568693E+01   -2.8864048933E+01   -2.8834686070E+01   -2.8801405451E+01
   -2.8764178865E+01   -2.8723020427E+01   -2.8677980395E+01   -2.8629138017E+01
   -2.8576594211E+01   -2.8520464698E+01   -2.8460873912E+01   -2.8397949879E+01
   -2.8331820082E+01   -2.8262608240E+01   -2.8190431922E+01   -2.8115400842E+01
   -2.8037615724E+01   -2.7957167600E+01   -2.7874137486E+01   -2.7788596282E+01
   -2.7700604925E+01   -2.7610214666E+01   -2.7517467495E+01   -2.7422396661E+01
   -2.7325027297E+01   -2.7225377099E+01   -2.7123457128E+01   -2.7019272650E+01
   -2.6912824059E+01   -2.6804107865E+01   -2.6693117746E+01   -2.6579845622E+01
   -2.6464282783E+01   -2.6346421015E+01   -2.6226253714E+01   -2.6103776973E+01
   -2.5978990602E+01   -2.5851899066E+01   -2.5722512318E+01   -2.5590846489E+01
   -2.5456924441E+01   -2.5320776208E+01   -2.5182439176E+01   -2.5041958128E+01
   -2.4899385244E+01   -2.4754779822E+01   -2.4608207795E+01   -2.4459741514E+01
   -2.4309458872E+01   -2.4157442934E+01   -2.4003781046E+01   -2.3848564340E+01
   -2.3691886842E+01   -2.3533844993E+01   -2.3374536868E+01   -2.3214061653E+01
   -2.3052519104E+01   -2.2890009062E+01   -2.2726631054E+01   -2.2562483919E+01
   -2.2397665544E+01   -2.2232272629E+01   -2.2066400486E+01   -2.1900142884E+01
   -2.1733591984E+01   -2.1566838254E+01   -2.1399970422E+01   -2.1233075476E+01
   -2.1066238594E+01   -2.0899543200E+01   -2.0733070961E+01   -2.0566901796E+01
   -2.0401113887E+01   -2.0235783692E+01   -2.0070985944E+01   -1.9906793658E+01
   -1.9743278121E+01   -1.9580508884E+01   -1.9418553733E+01   -1.9257478669E+01
   -1.9097347868E+01   -1.8938223635E+01   -1.8780166352E+01   -1.8623234421E+01
   -1.8467484192E+01   -1.8312969889E+01   -1.8159743527E+01   -1.8007854876E+01
   -1.7857351248E+01   -1.7708277443E+01   -1.7560675676E+01   -1.7414585443E+01
   -1.7270043400E+01   -1.7127083252E+01   -1.6985735770E+01   -1.6846028337E+01
   -1.6707984968E+01   -1.6571626300E+01   -1.6436969428E+01   -1.6304027991E+01
   -1.6172811735E+01   -1.6043326339E+01   -1.5915573801E+01   -1.5789552320E+01
   -1.5665256549E+01   -1.5542676399E+01   -1.5421798426E+01   -1.5302605688E+01
   -1.5185077854E+01   -1.5069190439E+01   -1.4954916321E+01   -1.4842225864E+01
   -1.4731086229E+01   -1.4621462399E+01   -1.4513317789E+01   -1.4406614071E+01
   -1.4301311515E+01   -1.4197369878E+01   -1.4094748270E+01   -1.3993405675E+01
   -1.3893301311E+01   -1.3794394577E+01   -1.3696645856E+01   -1.3600016107E+01
   -1.3504466788E+01   -1.3409963150E+01   -1.3316471838E+01   -1.3223965225E+01
   -1.3132419683E+01   -1.3041812962E+01   -1.2952129835E+01   -1.2863355754E+01
   -1.2775479883E+01   -1.2688494933E+01   -1.2602394026E+01   -1.2517174667E+01
   -1.2432834369E+01   -1.2349372818E+01   -1.2266790721E+01   -1.2185089239E+01
   -1.2104270472E+01   -1.2024336400E+01   -1.1945289122E+01   -1.1867130474E+01
   -1.1789862040E+01   -1.1713484615E+01   -1.1637998907E+01   -1.1563404031E+01
   -1.1489699534E+01   -1.1416882609E+01   -1.1344951251E+01   -1.1273900923E+01
   -1.1203727734E+01   -1.1134425638E+01   -1.1065988865E+01   -1.0998409937E+01
   -1.0931681368E+01   -1.0865794349E+01   -1.0800739894E+01   -1.0736507977E+01
   -1.0673088333E+01   -1.0610469838E+01   -1.0548641158E+01   -1.0487590192E+01
   -1.0427304721E+01   -1.0367771784E+01   -1.0308978438E+01   -1.0250910991E+01
   -1.0193555911E+01   -1.0136898919E+01   -1.0080926015E+01   -1.0025622518E+01
   -9.9709740470E+00   -9.9169657651E+00   -9.8635829721E+00   -9.8108109344E+00
   -9.7586348100E+00   -9.7070401046E+00   -9.6560121563E+00   -9.6055367393E+00
   -9.5555997875E+00   -9.5061873049E+00   -9.4572862791E+00   -9.4088828752E+00
   -9.3609653446E+00   -9.3135206097E+00   -9.2665376888E+00   -9.2200050250E+00
   -9.1739119790E+00   -9.1282490011E+00   -9.0830056100E+00   -9.0381742020E+00
   -8.9937452978E+00   -8.9497121156E+00   -8.9060672963E+00   -8.8628040144E+00
   -8.8199172728E+00   -8.7774002865E+00   -8.7352495557E+00   -8.6934600729E+00
   -8.6520280031E+00   -8.6109504405E+00   -8.5702233805E+00   -8.5298450463E+00
   -8.4898126288E+00   -8.4501239764E+00   -8.4107774100E+00   -8.3717708022E+00
   -8.3331026126E+00   -8.2947711843E+00   -8.2567747391E+00   -8.2191113001E+00
   -8.1817793851E+00   -8.1447764029E+00   -8.1081000738E+00   -8.0717482981E+00
   -8.0357175392E+00   -8.0000051757E+00   -7.9646078246E+00   -7.9295215786E+00
   -7.8947431143E+00   -7.8602683735E+00   -7.8260934078E+00   -7.7922142660E+00
   -7.7586272635E+00   -7.7253285295E+00   -7.6923142943E+00   -7.6595811098E+00
   -7.6271252706E+00   -7.5949433014E+00   -7.5630318467E+00   -7.5313873117E+00
   -7.5000064829E+00   -7.4688861409E+00   -7.4380228412E+00   -7.4074135946E+00
   -7.3770553019E+00   -7.3469446610E+00   -7.3170788779E+00   -7.2874549632E+00
   -7.2580697988E+00   -7.2289207166E+00   -7.2000048594E+00   -7.1713192685E+00
   -7.1428613996E+00   -7.1146285285E+00   -7.0866178321E+00   -7.0588268885E+00
   -7.0312531066E+00   -7.0038937769E+00   -6.9767465984E+00   -6.9498091136E+00
   -6.9230787056E+00   -6.8965531934E+00   -6.8702302349E+00   -6.8441073411E+00
   -6.8181823952E+00   -6.7924531818E+00   -6.7669173441E+00   -6.7415728066E+00
   -6.7164174819E+00   -6.6914491465E+00   -6.6666657484E+00   -6.6420653278E+00
   -6.6176457963E+00   -6.5934051094E+00   -6.5693414330E+00   -6.5454528158E+00
   -6.5217372077E+00   -6.4981928968E+00   -6.4748180364E+00   -6.4516106618E+00
   -6.4285690783E+00   -6.4056915578E+00   -6.3829762710E+00   -6.3604214795E+00
   -6.3380255865E+00   -6.3157869019E+00   -6.2937036342E+00   -6.2717743114E+00
   -6.2499973328E+00   -6.2283710048E+00   -6.2068938174E+00   -6.1855642948E+00
   -6.1643808832E+00   -6.1433419880E+00   -6.1224462638E+00   -6.1016922557E+00
   -6.0810784151E+00   -6.0606033843E+00   -6.0402658191E+00   -6.0200643120E+00
   -5.9999973958E+00   -5.9800638576E+00   -5.9602623753E+00   -5.9405915530E+00
   -5.9210501183E+00   -5.9016368682E+00   -5.8823505421E+00   -5.8631897650E+00
   -5.8441534361E+00   -5.8252403623E+00   -5.8064493084E+00   -5.7877790296E+00
   -5.7692284701E+00   -5.7507964843E+00   -5.7324818599E+00   -5.7142834900E+00
   -5.6962003382E+00   -5.6782313119E+00   -5.6603752275E+00   -5.6426310969E+00
   -5.6249979047E+00   -5.6074746095E+00   -5.5900600613E+00   -5.5727533711E+00
   -5.5555535487E+00   -5.5384595868E+00   -5.5214704160E+00   -5.5045851856E+00
   -5.4878029489E+00   -5.4711227339E+00   -5.4545435446E+00   -5.4380645625E+00
   -5.4216848849E+00   -5.4054035787E+00   -5.3892197064E+00   -5.3731324844E+00
   -5.3571410520E+00   -5.3412445180E+00   -5.3254419893E+00   -5.3097327199E+00
   -5.2941158894E+00   -5.2785906514E+00   -5.2631561439E+00   -5.2478116612E+00
   -5.2325564210E+00   -5.2173896250E+00   -5.2023104297E+00   -5.1873181721E+00
   -5.1724121065E+00   -5.1575914851E+00   -5.1428554717E+00   -5.1282034480E+00
   -5.1136347030E+00   -5.0991485256E+00   -5.0847441265E+00   -5.0704208837E+00
   -5.0561781359E+00   -5.0420152051E+00   -5.0279313577E+00   -5.0139259515E+00
   -4.9999983786E+00   -4.9861479928E+00   -4.9723741195E+00   -4.9586760862E+00
   -4.9450533400E+00   -4.9315052647E+00   -4.9180312442E+00   -4.9046305784E+00
   -4.8913027589E+00   -4.8780472017E+00   -4.8648633193E+00   -4.8517504739E+00
   -4.8387081060E+00   -4.8257356930E+00   -4.8128326749E+00   -4.7999984806E+00
   -4.7872324911E+00   -4.7745342452E+00   -4.7619032090E+00   -4.7493388484E+00
   -4.7368405771E+00   -4.7244078975E+00   -4.7120403317E+00   -4.6997373706E+00
   -4.6874984987E+00   -4.6753231416E+00   -4.6632108869E+00   -4.6511612494E+00
   -4.6391737437E+00   -4.6272478467E+00   -4.6153830786E+00   -4.6035790189E+00
   -4.5918352049E+00   -4.5801511739E+00   -4.5685264009E+00   -4.5569604872E+00
   -4.5454530066E+00   -4.5340035181E+00   -4.5226115735E+00   -4.5112766723E+00
   -4.4999984615E+00   -4.4887765205E+00   -4.4776104285E+00   -4.4664997415E+00
   -4.4554440174E+00   -4.4444429059E+00   -4.4334960059E+00   -4.4226029164E+00
   -4.4117632011E+00   -4.4009764652E+00   -4.3902423639E+00   -4.3795605149E+00
   -4.3689305358E+00   -4.3583520023E+00   -4.3478245551E+00   -4.3373478588E+00
   -4.3269215488E+00   -4.3165452605E+00   -4.3062185851E+00   -4.2959411880E+00
   -4.2857127466E+00   -4.2755329133E+00   -4.2654013406E+00   -4.2553176382E+00
   -4.2452814862E+00   -4.2352925783E+00   -4.2253505831E+00   -4.2154551692E+00
   -4.2056059678E+00   -4.1958026647E+00   -4.1860449726E+00   -4.1763325757E+00
   -4.1666651581E+00   -4.1570423755E+00   -4.1474639100E+00   -4.1379294969E+00
   -4.1284388349E+00   -4.1189916228E+00   -4.1095875438E+00   -4.1002262684E+00
   -4.0909075565E+00   -4.0816311209E+00   -4.0723966745E+00   -4.0632039301E+00
   -4.0540525407E+00   -4.0449422914E+00   -4.0358729091E+00   -4.0268441198E+00
   -4.0178556497E+00   -4.0089071846E+00   -3.9999984800E+00   -3.9911292944E+00
   -3.9822993668E+00   -3.9735084362E+00   -3.9647562239E+00   -3.9560424488E+00
   -3.9473669031E+00   -3.9387293379E+00   -3.9301295043E+00   -3.9215671535E+00
   -3.9130419882E+00   -3.9045538091E+00   -3.8961023873E+00   -3.8876874856E+00
   -3.8793088667E+00   -3.8709662740E+00   -3.8626594565E+00   -3.8543882245E+00
   -3.8461523520E+00   -3.8379516126E+00   -3.8297857801E+00   -3.8216545866E+00
   -3.8135578427E+00   -3.8054953454E+00   -3.7974668790E+00   -3.7894722280E+00
   -3.7815111699E+00   -3.7735834506E+00   -3.7656889107E+00   -3.7578273445E+00
   -3.7499985463E+00   -3.7422023106E+00   -3.7344384100E+00   -3.7267066337E+00
   -3.7190068163E+00   -3.7113387618E+00   -3.7037022739E+00   -3.6960971568E+00
   -3.6885231821E+00   -3.6809801728E+00   -3.6734679608E+00   -3.6659863592E+00
   -3.6585351810E+00   -3.6511142393E+00   -3.6437233085E+00   -3.6363622362E+00
   -3.6290308551E+00   -3.6217289869E+00   -3.6144564534E+00   -3.6072130765E+00
   -3.5999986362E+00   -3.5928129964E+00   -3.5856559939E+00   -3.5785274587E+00
   -3.5714272209E+00   -3.5643551105E+00   -3.5573109166E+00   -3.5502945113E+00
   -3.5433057384E+00   -3.5363444360E+00   -3.5294104421E+00   -3.5225035947E+00
   -3.5156236943E+00   -3.5087706138E+00   -3.5019442074E+00   -3.4951443206E+00
   -3.4883707990E+00   -3.4816234882E+00   -3.4749022028E+00   -3.4682068096E+00
   -3.4615371758E+00   -3.4548931541E+00   -3.4482745973E+00   -3.4416813581E+00
   -3.4351132682E+00   -3.4285701814E+00   -3.4220519804E+00   -3.4155585248E+00
   -3.4090896743E+00   -3.4026452886E+00   -3.3962252187E+00   -3.3898292994E+00
   -3.3834574313E+00   -3.3771094804E+00   -3.3707853131E+00   -3.3644847955E+00
   -3.3582077936E+00   -3.3519541389E+00   -3.3457237302E+00   -3.3395164471E+00
   -3.3333321620E+00   -3.3271707473E+00   -3.3210320753E+00   -3.3149160019E+00
   -3.3088223936E+00   -3.3027511534E+00   -3.2967021597E+00   -3.2906752907E+00
   -3.2846704249E+00   -3.2786874406E+00   -3.2727261806E+00   -3.2667865592E+00
   -3.2608684648E+00   -3.2549717815E+00   -3.2490963933E+00   -3.2432421841E+00
   -3.2374090262E+00   -3.2315967894E+00   -3.2258053907E+00   -3.2200347194E+00
   -3.2142846648E+00   -3.2085551165E+00   -3.2028459639E+00   -3.1971570720E+00
   -3.1914883436E+00   -3.1858396873E+00   -3.1802109977E+00   -3.1746021694E+00
   -3.1690130969E+00   -3.1634436748E+00   -3.1578937649E+00   -3.1523632943E+00
   -3.1468521670E+00   -3.1413602823E+00   -3.1358875399E+00   -3.1304338391E+00
   -3.1249990774E+00   -3.1195831223E+00   -3.1141859122E+00   -3.1088073511E+00
   -3.1034473432E+00   -3.0981057927E+00   -3.0927826037E+00   -3.0874776754E+00
   -3.0821908871E+00   -3.0769221778E+00   -3.0716714561E+00   -3.0664386307E+00
   -3.0612236102E+00   -3.0560263032E+00   -3.0508466132E+00   -3.0456844250E+00
   -3.0405396809E+00   -3.0354122940E+00   -3.0303021769E+00   -3.0252092427E+00
   -3.0201334042E+00   -3.0150745720E+00   -3.0100326300E+00   -3.0050075267E+00
   -2.9999991788E+00   -2.9950075035E+00
  </PP_LOCAL>
 <PP_NONLOCAL>
   <PP_BETA.1
       type="real"
       size=" 602"
       columns="4"
       index="1"
       angular_momentum="0"
       cutoff_radius_index=" 234"
       cutoff_radius="    2.3300000000E+00" >
    0.0000000000E+00   -2.2051721355E-02   -4.4185813730E-02   -6.6483846849E-02
   -8.9025794042E-02   -1.1188924949E-01   -1.3514866388E-01   -1.5887460434E-01
   -1.8313304444E-01   -2.0798468962E-01   -2.3348434341E-01   -2.5968031917E-01
   -2.8661390195E-01   -3.1431886459E-01   -3.4282104183E-01   -3.7213796550E-01
   -4.0227856385E-01   -4.3324292695E-01   -4.6502214035E-01   -4.9759818780E-01
   -5.3094392422E-01   -5.6502311833E-01   -5.9979056564E-01   -6.3519226996E-01
   -6.7116569218E-01   -7.0764006542E-01   -7.4453677131E-01   -7.8176977945E-01
   -8.1924614054E-01   -8.5686653441E-01   -8.9452586651E-01   -9.3211390892E-01
   -9.6951597700E-01   -1.0066136524E+00   -1.0432855182E+00   -1.0794079292E+00
   -1.1148557972E+00   -1.1495033933E+00   -1.1832251362E+00   -1.2158964099E+00
   -1.2473943627E+00   -1.2775986844E+00   -1.3063923819E+00   -1.3336625264E+00
   -1.3593009752E+00   -1.3832050590E+00   -1.4052782337E+00   -1.4254306807E+00
   -1.4435798756E+00   -1.4596511318E+00   -1.4735780254E+00   -1.4853027783E+00
   -1.4947766845E+00   -1.5019603656E+00   -1.5068239024E+00   -1.5093472208E+00
   -1.5095199332E+00   -1.5073416142E+00   -1.5028215713E+00   -1.4959789663E+00
   -1.4868424457E+00   -1.4754501752E+00   -1.4618493859E+00   -1.4460961533E+00
   -1.4282550399E+00   -1.4083986315E+00   -1.3866071205E+00   -1.3629677936E+00
   -1.3375744917E+00   -1.3105270696E+00   -1.2819307735E+00   -1.2518956056E+00
   -1.2205357224E+00   -1.1879687711E+00   -1.1543152269E+00   -1.1196977771E+00