<UPF version="2.0.1">
  <PP_INFO>

 This pseudopotential file has been produced using the code
 ONCVPSP  (Optimized Norm-Conservinng Vanderbilt PSeudopotential)
 fully-relativistic version 4.0.1 06/20/2107 by D. R. Hamann
 The code is available through a link at URL www.mat-simresearch.com.
 Documentation with the package provides a full discription of the
 input data below.


 While it is not required under the terms of the GNU GPL, it is
 suggested that you cite D. R. Hamann, Phys. Rev. B 88, 085117 (2013)
 in any publication using these pseudopotentials.

    <PP_INPUTFILE>
# ATOM AND REFERENCE CONFIGURATION
# atsym  z   nc   nv     iexc    psfile
  O  8.00    1    2       4      upf
#
#   n    l    f        energy (Ha)
    1    0    2.00
    2    0    2.00
    2    1    4.00
#
# PSEUDOPOTENTIAL AND OPTIMIZATION
# lmax
    1
#
#   l,   rc,     ep,   ncon, nbas, qcut
    0   1.29000  -0.88000    5    8   8.99000
    1   1.47000  -0.33000    5    8   9.15000
#
# LOCAL POTENTIAL
# lloc, lpopt,  rc(5),   dvloc0
    4    5   0.90000      0.00000
#
# VANDERBILT-KLEINMAN-BYLANDER PROJECTORs
# l, nproj, debl
    0    2   1.51850
    1    2   1.53590
#
# MODEL CORE CHARGE
# icmod, fcfact, rcfact
    0   0.00000   0.00000
#
# LOG DERIVATIVE ANALYSIS
# epsh1, epsh2, depsh
   -5.00    3.00    0.02
#
# OUTPUT GRID
# rlmax, drl
    6.00    0.01
#
# TEST CONFIGURATIONS
# ncnf
    0
# nvcnf
#   n    l    f
    </PP_INPUTFILE>
  </PP_INFO>
  <!--                               -->
  <!-- END OF HUMAN READABLE SECTION -->
  <!--                               -->
    <PP_HEADER
       generated="Generated using ONCVPSP code by D. R. Hamann"
       author="anonymous"
       date="220620"
       comment=""
       element="O "
       pseudo_type="NC"
       relativistic="full"
       is_ultrasoft="F"
       is_paw="F"
       is_coulomb="F"
       has_so="T"
       has_wfc="F"
       has_gipaw="F"
       core_correction="F"
       functional="PBE"
       z_valence="    6.00"
       total_psenergy="  -3.14339035208E+01"
       rho_cutoff="   9.29000000000E+00"
       l_max="1"
       l_local="-1"
       mesh_size="   930"
       number_of_wfc="3"
       number_of_proj="6"/>
 <PP_MESH>
   <PP_R type="real"  size=" 930" columns="8">
    0.0000    0.0100    0.0200    0.0300    0.0400    0.0500    0.0600    0.0700
    0.0800    0.0900    0.1000    0.1100    0.1200    0.1300    0.1400    0.1500
    0.1600    0.1700    0.1800    0.1900    0.2000    0.2100    0.2200    0.2300
    0.2400    0.2500    0.2600    0.2700    0.2800    0.2900    0.3000    0.3100
    0.3200    0.3300    0.3400    0.3500    0.3600    0.3700    0.3800    0.3900
    0.4000    0.4100    0.4200    0.4300    0.4400    0.4500    0.4600    0.4700
    0.4800    0.4900    0.5000    0.5100    0.5200    0.5300    0.5400    0.5500
    0.5600    0.5700    0.5800    0.5900    0.6000    0.6100    0.6200    0.6300
    0.6400    0.6500    0.6600    0.6700    0.6800    0.6900    0.7000    0.7100
    0.7200    0.7300    0.7400    0.7500    0.7600    0.7700    0.7800    0.7900
    0.8000    0.8100    0.8200    0.8300    0.8400    0.8500    0.8600    0.8700
    0.8800    0.8900    0.9000    0.9100    0.9200    0.9300    0.9400    0.9500
    0.9600    0.9700    0.9800    0.9900    1.0000    1.0100    1.0200    1.0300
    1.0400    1.0500    1.0600    1.0700    1.0800    1.0900    1.1000    1.1100
    1.1200    1.1300    1.1400    1.1500    1.1600    1.1700    1.1800    1.1900
    1.2000    1.2100    1.2200    1.2300    1.2400    1.2500    1.2600    1.2700
    1.2800    1.2900    1.3000    1.3100    1.3200    1.3300    1.3400    1.3500
    1.3600    1.3700    1.3800    1.3900    1.4000    1.4100    1.4200    1.4300
    1.4400    1.4500    1.4600    1.4700    1.4800    1.4900    1.5000    1.5100
    1.5200    1.5300    1.5400    1.5500    1.5600    1.5700    1.5800    1.5900
    1.6000    1.6100    1.6200    1.6300    1.6400    1.6500    1.6600    1.6700
    1.6800    1.6900    1.7000    1.7100    1.7200    1.7300    1.7400    1.7500
    1.7600    1.7700    1.7800    1.7900    1.8000    1.8100    1.8200    1.8300
    1.8400    1.8500    1.8600    1.8700    1.8800    1.8900    1.9000    1.9100
    1.9200    1.9300    1.9400    1.9500    1.9600    1.9700    1.9800    1.9900
    2.0000    2.0100    2.0200    2.0300    2.0400    2.0500    2.0600    2.0700
    2.0800    2.0900    2.1000    2.1100    2.1200    2.1300    2.1400    2.1500
    2.1600    2.1700    2.1800    2.1900    2.2000    2.2100    2.2200    2.2300
    2.2400    2.2500    2.2600    2.2700    2.2800    2.2900    2.3000    2.3100
    2.3200    2.3300    2.3400    2.3500    2.3600    2.3700    2.3800    2.3900
    2.4000    2.4100    2.4200    2.4300    2.4400    2.4500    2.4600    2.4700
    2.4800    2.4900    2.5000    2.5100    2.5200    2.5300    2.5400    2.5500
    2.5600    2.5700    2.5800    2.5900    2.6000    2.6100    2.6200    2.6300
    2.6400    2.6500    2.6600    2.6700    2.6800    2.6900    2.7000    2.7100
    2.7200    2.7300    2.7400    2.7500    2.7600    2.7700    2.7800    2.7900
    2.8000    2.8100    2.8200    2.8300    2.8400    2.8500    2.8600    2.8700
    2.8800    2.8900    2.9000    2.9100    2.9200    2.9300    2.9400    2.9500
    2.9600    2.9700    2.9800    2.9900    3.0000    3.0100    3.0200    3.0300
    3.0400    3.0500    3.0600    3.0700    3.0800    3.0900    3.1000    3.1100
    3.1200    3.1300    3.1400    3.1500    3.1600    3.1700    3.1800    3.1900
    3.2000    3.2100    3.2200    3.2300    3.2400    3.2500    3.2600    3.2700
    3.2800    3.2900    3.3000    3.3100    3.3200    3.3300    3.3400    3.3500
    3.3600    3.3700    3.3800    3.3900    3.4000    3.4100    3.4200    3.4300
    3.4400    3.4500    3.4600    3.4700    3.4800    3.4900    3.5000    3.5100
    3.5200    3.5300    3.5400    3.5500    3.5600    3.5700    3.5800    3.5900
    3.6000    3.6100    3.6200    3.6300    3.6400    3.6500    3.6600    3.6700
    3.6800    3.6900    3.7000    3.7100    3.7200    3.7300    3.7400    3.7500
    3.7600    3.7700    3.7800    3.7900    3.8000    3.8100    3.8200    3.8300
    3.8400    3.8500    3.8600    3.8700    3.8800    3.8900    3.9000    3.9100
    3.9200    3.9300    3.9400    3.9500    3.9600    3.9700    3.9800    3.9900
    4.0000    4.0100    4.0200    4.0300    4.0400    4.0500    4.0600    4.0700
    4.0800    4.0900    4.1000    4.1100    4.1200    4.1300    4.1400    4.1500
    4.1600    4.1700    4.1800    4.1900    4.2000    4.2100    4.2200    4.2300
    4.2400    4.2500    4.2600    4.2700    4.2800    4.2900    4.3000    4.3100
    4.3200    4.3300    4.3400    4.3500    4.3600    4.3700    4.3800    4.3900
    4.4000    4.4100    4.4200    4.4300    4.4400    4.4500    4.4600    4.4700
    4.4800    4.4900    4.5000    4.5100    4.5200    4.5300    4.5400    4.5500
    4.5600    4.5700    4.5800    4.5900    4.6000    4.6100    4.6200    4.6300
    4.6400    4.6500    4.6600    4.6700    4.6800    4.6900    4.7000    4.7100
    4.7200    4.7300    4.7400    4.7500    4.7600    4.7700    4.7800    4.7900
    4.8000    4.8100    4.8200    4.8300    4.8400    4.8500    4.8600    4.8700
    4.8800    4.8900    4.9000    4.9100    4.9200    4.9300    4.9400    4.9500
    4.9600    4.9700    4.9800    4.9900    5.0000    5.0100    5.0200    5.0300
    5.0400    5.0500    5.0600    5.0700    5.0800    5.0900    5.1000    5.1100
    5.1200    5.1300    5.1400    5.1500    5.1600    5.1700    5.1800    5.1900
    5.2000    5.2100    5.2200    5.2300    5.2400    5.2500    5.2600    5.2700
    5.2800    5.2900    5.3000    5.3100    5.3200    5.3300    5.3400    5.3500
    5.3600    5.3700    5.3800    5.3900    5.4000    5.4100    5.4200    5.4300
    5.4400    5.4500    5.4600    5.4700    5.4800    5.4900    5.5000    5.5100
    5.5200    5.5300    5.5400    5.5500    5.5600    5.5700    5.5800    5.5900
    5.6000    5.6100    5.6200    5.6300    5.6400    5.6500    5.6600    5.6700
    5.6800    5.6900    5.7000    5.7100    5.7200    5.7300    5.7400    5.7500
    5.7600    5.7700    5.7800    5.7900    5.8000    5.8100    5.8200    5.8300
    5.8400    5.8500    5.8600    5.8700    5.8800    5.8900    5.9000    5.9100
    5.9200    5.9300    5.9400    5.9500    5.9600    5.9700    5.9800    5.9900
    6.0000    6.0100    6.0200    6.0300    6.0400    6.0500    6.0600    6.0700
    6.0800    6.0900    6.1000    6.1100    6.1200    6.1300    6.1400    6.1500
    6.1600    6.1700    6.1800    6.1900    6.2000    6.2100    6.2200    6.2300
    6.2400    6.2500    6.2600    6.2700    6.2800    6.2900    6.3000    6.3100
    6.3200    6.3300    6.3400    6.3500    6.3600    6.3700    6.3800    6.3900
    6.4000    6.4100    6.4200    6.4300    6.4400    6.4500    6.4600    6.4700
    6.4800    6.4900    6.5000    6.5100    6.5200    6.5300    6.5400    6.5500
    6.5600    6.5700    6.5800    6.5900    6.6000    6.6100    6.6200    6.6300
    6.6400    6.6500    6.6600    6.6700    6.6800    6.6900    6.7000    6.7100
    6.7200    6.7300    6.7400    6.7500    6.7600    6.7700    6.7800    6.7900
    6.8000    6.8100    6.8200    6.8300    6.8400    6.8500    6.8600    6.8700
    6.8800    6.8900    6.9000    6.9100    6.9200    6.9300    6.9400    6.9500
    6.9600    6.9700    6.9800    6.9900    7.0000    7.0100    7.0200    7.0300
    7.0400    7.0500    7.0600    7.0700    7.0800    7.0900    7.1000    7.1100
    7.1200    7.1300    7.1400    7.1500    7.1600    7.1700    7.1800    7.1900
    7.2000    7.2100    7.2200    7.2300    7.2400    7.2500    7.2600    7.2700
    7.2800    7.2900    7.3000    7.3100    7.3200    7.3300    7.3400    7.3500
    7.3600    7.3700    7.3800    7.3900    7.4000    7.4100    7.4200    7.4300
    7.4400    7.4500    7.4600    7.4700    7.4800    7.4900    7.5000    7.5100
    7.5200    7.5300    7.5400    7.5500    7.5600    7.5700    7.5800    7.5900
    7.6000    7.6100    7.6200    7.6300    7.6400    7.6500    7.6600    7.6700
    7.6800    7.6900    7.7000    7.7100    7.7200    7.7300    7.7400    7.7500
    7.7600    7.7700    7.7800    7.7900    7.8000    7.8100    7.8200    7.8300
    7.8400    7.8500    7.8600    7.8700    7.8800    7.8900    7.9000    7.9100
    7.9200    7.9300    7.9400    7.9500    7.9600    7.9700    7.9800    7.9900
    8.0000    8.0100    8.0200    8.0300    8.0400    8.0500    8.0600    8.0700
    8.0800    8.0900    8.1000    8.1100    8.1200    8.1300    8.1400    8.1500
    8.1600    8.1700    8.1800    8.1900    8.2000    8.2100    8.2200    8.2300
    8.2400    8.2500    8.2600    8.2700    8.2800    8.2900    8.3000    8.3100
    8.3200    8.3300    8.3400    8.3500    8.3600    8.3700    8.3800    8.3900
    8.4000    8.4100    8.4200    8.4300    8.4400    8.4500    8.4600    8.4700
    8.4800    8.4900    8.5000    8.5100    8.5200    8.5300    8.5400    8.5500
    8.5600    8.5700    8.5800    8.5900    8.6000    8.6100    8.6200    8.6300
    8.6400    8.6500    8.6600    8.6700    8.6800    8.6900    8.7000    8.7100
    8.7200    8.7300    8.7400    8.7500    8.7600    8.7700    8.7800    8.7900
    8.8000    8.8100    8.8200    8.8300    8.8400    8.8500    8.8600    8.8700
    8.8800    8.8900    8.9000    8.9100    8.9200    8.9300    8.9400    8.9500
    8.9600    8.9700    8.9800    8.9900    9.0000    9.0100    9.0200    9.0300
    9.0400    9.0500    9.0600    9.0700    9.0800    9.0900    9.1000    9.1100
    9.1200    9.1300    9.1400    9.1500    9.1600    9.1700    9.1800    9.1900
    9.2000    9.2100    9.2200    9.2300    9.2400    9.2500    9.2600    9.2700
    9.2800    9.2900
   </PP_R>
   <PP_RAB type="real"  size=" 930" columns="8">
    0.0100    0.0100    0.0100    0.0100    0.0100    0.0100    0.0100    0.0100
    0.0100    0.0100    0.0100    0.0100    0.0100    0.0100    0.0100    0.0100
    0.0100    0.0100    0.0100    0.0100    0.0100    0.0100    0.0100    0.0100
    0.0100    0.0100    0.0100    0.0100    0.0100    0.0100    0.0100    0.0100
    0.0100    0.0100    0.0100    0.0100    0.0100    0.0100    0.0100    0.0100
    0.0100    0.0100    0.0100    0.0100    0.0100    0.0100    0.0100    0.0100
    0.0100    0.0100    0.0100    0.0100    0.0100    0.0100    0.0100    0.0100
    0.0100    0.0100    0.0100    0.0100    0.0100    0.0100    0.0100    0.0100
    0.0100    0.0100    0.0100    0.0100    0.0100    0.0100    0.0100    0.0100
    0.0100    0.0100    0.0100    0.0100    0.0100    0.0100    0.0100    0.0100
    0.0100    0.0100    0.0100    0.0100    0.0100    0.0100    0.0100    0.0100
    0.0100    0.0100    0.0100    0.0100    0.0100    0.0100    0.0100    0.0100
    0.0100    0.0100    0.0100    0.0100    0.0100    0.0100    0.0100    0.0100
    0.0100    0.0100    0.0100    0.0100    0.0100    0.0100    0.0100    0.0100
    0.0100    0.0100    0.0100    0.0100    0.0100    0.0100    0.0100    0.0100
    0.0100    0.0100    0.0100    0.0100    0.0100    0.0100    0.0100    0.0100
    0.0100    0.0100    0.0100    0.0100    0.0100    0.0100    0.0100    0.0100
    0.0100    0.0100    0.0100    0.0100    0.0100    0.0100    0.0100    0.0100
    0.0100    0.0100    0.0100    0.0100    0.0100    0.0100    0.0100    0.0100
    0.0100    0.0100    0.0100    0.0100    0.0100    0.0100    0.0100    0.0100
    0.0100    0.0100    0.0100    0.0100    0.0100    0.0100    0.0100    0.0100
    0.0100    0.0100    0.0100    0.0100    0.0100    0.0100    0.0100    0.0100
    0.0100    0.0100    0.0100    0.0100    0.0100    0.0100    0.0100    0.0100
    0.0100    0.0100    0.0100    0.0100    0.0100    0.0100    0.0100    0.0100
    0.0100    0.0100    0.0100    0.0100    0.0100    0.0100    0.0100    0.0100
    0.0100    0.0100    0.0100    0.0100    0.0100    0.0100    0.0100    0.0100
    0.0100    0.0100    0.0100    0.0100    0.0100    0.0100    0.0100    0.0100
    0.0100    0.0100    0.0100    0.0100    0.0100    0.0100    0.0100    0.0100
    0.0100    0.0100    0.0100    0.0100    0.0100    0.0100    0.0100    0.0100
    0.0100    0.0100    0.0100    0.0100    0.0100    0.0100    0.0100    0.0100
    0.0100    0.0100    0.0100    0.0100    0.0100    0.0100    0.0100    0.0100
    0.0100    0.0100    0.0100    0.0100    0.0100    0.0100    0.0100    0.0100
    0.0100    0.0100    0.0100    0.0100    0.0100    0.0100    0.0100    0.0100
    0.0100    0.0100    0.0100    0.0100    0.0100    0.0100    0.0100    0.0100
    0.0100    0.0100    0.0100    0.0100    0.0100    0.0100    0.0100    0.0100
    0.0100    0.0100    0.0100    0.0100    0.0100    0.0100    0.0100    0.0100
    0.0100    0.0100    0.0100    0.0100    0.0100    0.0100    0.0100    0.0100
    0.0100    0.0100    0.0100    0.0100    0.0100    0.0100    0.0100    0.0100
    0.0100    0.0100    0.0100    0.0100    0.0100    0.0100    0.0100    0.0100
    0.0100    0.0100    0.0100    0.0100    0.0100    0.0100    0.0100    0.0100
    0.0100    0.0100    0.0100    0.0100    0.0100    0.0100    0.0100    0.0100
    0.0100    0.0100    0.0100    0.0100    0.0100    0.0100    0.0100    0.0100
    0.0100    0.0100    0.0100    0.0100    0.0100    0.0100    0.0100    0.0100
    0.0100    0.0100    0.0100    0.0100    0.0100    0.0100    0.0100    0.0100
    0.0100    0.0100    0.0100    0.0100    0.0100    0.0100    0.0100    0.0100
    0.0100    0.0100    0.0100    0.0100    0.0100    0.0100    0.0100    0.0100
    0.0100    0.0100    0.0100    0.0100    0.0100    0.0100    0.0100    0.0100
    0.0100    0.0100    0.0100    0.0100    0.0100    0.0100    0.0100    0.0100
    0.0100    0.0100    0.0100    0.0100    0.0100    0.0100    0.0100    0.0100
    0.0100    0.0100    0.0100    0.0100    0.0100    0.0100    0.0100    0.0100
    0.0100    0.0100    0.0100    0.0100    0.0100    0.0100    0.0100    0.0100
    0.0100    0.0100    0.0100    0.0100    0.0100    0.0100    0.0100    0.0100
    0.0100    0.0100    0.0100    0.0100    0.0100    0.0100    0.0100    0.0100
    0.0100    0.0100    0.0100    0.0100    0.0100    0.0100    0.0100    0.0100
    0.0100    0.0100    0.0100    0.0100    0.0100    0.0100    0.0100    0.0100
    0.0100    0.0100    0.0100    0.0100    0.0100    0.0100    0.0100    0.0100
    0.0100    0.0100    0.0100    0.0100    0.0100    0.0100    0.0100    0.0100
    0.0100    0.0100    0.0100    0.0100    0.0100    0.0100    0.0100    0.0100
    0.0100    0.0100    0.0100    0.0100    0.0100    0.0100    0.0100    0.0100
    0.0100    0.0100    0.0100    0.0100    0.0100    0.0100    0.0100    0.0100
    0.0100    0.0100    0.0100    0.0100    0.0100    0.0100    0.0100    0.0100
    0.0100    0.0100    0.0100    0.0100    0.0100    0.0100    0.0100    0.0100
    0.0100    0.0100    0.0100    0.0100    0.0100    0.0100    0.0100    0.0100
    0.0100    0.0100    0.0100    0.0100    0.0100    0.0100    0.0100    0.0100
    0.0100    0.0100    0.0100    0.0100    0.0100    0.0100    0.0100    0.0100
    0.0100    0.0100    0.0100    0.0100    0.0100    0.0100    0.0100    0.0100
    0.0100    0.0100    0.0100    0.0100    0.0100    0.0100    0.0100    0.0100
    0.0100    0.0100    0.0100    0.0100    0.0100    0.0100    0.0100    0.0100
    0.0100    0.0100    0.0100    0.0100    0.0100    0.0100    0.0100    0.0100
    0.0100    0.0100    0.0100    0.0100    0.0100    0.0100    0.0100    0.0100
    0.0100    0.0100    0.0100    0.0100    0.0100    0.0100    0.0100    0.0100
    0.0100    0.0100    0.0100    0.0100    0.0100    0.0100    0.0100    0.0100
    0.0100    0.0100    0.0100    0.0100    0.0100    0.0100    0.0100    0.0100
    0.0100    0.0100    0.0100    0.0100    0.0100    0.0100    0.0100    0.0100
    0.0100    0.0100    0.0100    0.0100    0.0100    0.0100    0.0100    0.0100
    0.0100    0.0100    0.0100    0.0100    0.0100    0.0100    0.0100    0.0100
    0.0100    0.0100    0.0100    0.0100    0.0100    0.0100    0.0100    0.0100
    0.0100    0.0100    0.0100    0.0100    0.0100    0.0100    0.0100    0.0100
    0.0100    0.0100    0.0100    0.0100    0.0100    0.0100    0.0100    0.0100
    0.0100    0.0100    0.0100    0.0100    0.0100    0.0100    0.0100    0.0100
    0.0100    0.0100    0.0100    0.0100    0.0100    0.0100    0.0100    0.0100
    0.0100    0.0100    0.0100    0.0100    0.0100    0.0100    0.0100    0.0100
    0.0100    0.0100    0.0100    0.0100    0.0100    0.0100    0.0100    0.0100
    0.0100    0.0100    0.0100    0.0100    0.0100    0.0100    0.0100    0.0100
    0.0100    0.0100    0.0100    0.0100    0.0100    0.0100    0.0100    0.0100
    0.0100    0.0100    0.0100    0.0100    0.0100    0.0100    0.0100    0.0100
    0.0100    0.0100    0.0100    0.0100    0.0100    0.0100    0.0100    0.0100
    0.0100    0.0100    0.0100    0.0100    0.0100    0.0100    0.0100    0.0100
    0.0100    0.0100    0.0100    0.0100    0.0100    0.0100    0.0100    0.0100
    0.0100    0.0100    0.0100    0.0100    0.0100    0.0100    0.0100    0.0100
    0.0100    0.0100    0.0100    0.0100    0.0100    0.0100    0.0100    0.0100
    0.0100    0.0100    0.0100    0.0100    0.0100    0.0100    0.0100    0.0100
    0.0100    0.0100    0.0100    0.0100    0.0100    0.0100    0.0100    0.0100
    0.0100    0.0100    0.0100    0.0100    0.0100    0.0100    0.0100    0.0100
    0.0100    0.0100    0.0100    0.0100    0.0100    0.0100    0.0100    0.0100
    0.0100    0.0100    0.0100    0.0100    0.0100    0.0100    0.0100    0.0100
    0.0100    0.0100    0.0100    0.0100    0.0100    0.0100    0.0100    0.0100
    0.0100    0.0100    0.0100    0.0100    0.0100    0.0100    0.0100    0.0100
    0.0100    0.0100    0.0100    0.0100    0.0100    0.0100    0.0100    0.0100
    0.0100    0.0100    0.0100    0.0100    0.0100    0.0100    0.0100    0.0100
    0.0100    0.0100    0.0100    0.0100    0.0100    0.0100    0.0100    0.0100
    0.0100    0.0100    0.0100    0.0100    0.0100    0.0100    0.0100    0.0100
    0.0100    0.0100    0.0100    0.0100    0.0100    0.0100    0.0100    0.0100
    0.0100    0.0100    0.0100    0.0100    0.0100    0.0100    0.0100    0.0100
    0.0100    0.0100    0.0100    0.0100    0.0100    0.0100    0.0100    0.0100
    0.0100    0.0100    0.0100    0.0100    0.0100    0.0100    0.0100    0.0100
    0.0100    0.0100    0.0100    0.0100    0.0100    0.0100    0.0100    0.0100
    0.0100    0.0100    0.0100    0.0100    0.0100    0.0100    0.0100    0.0100
    0.0100    0.0100    0.0100    0.0100    0.0100    0.0100    0.0100    0.0100
    0.0100    0.0100    0.0100    0.0100    0.0100    0.0100    0.0100    0.0100
    0.0100    0.0100    0.0100    0.0100    0.0100    0.0100    0.0100    0.0100
    0.0100    0.0100    0.0100    0.0100    0.0100    0.0100    0.0100    0.0100
    0.0100    0.0100    0.0100    0.0100    0.0100    0.0100    0.0100    0.0100
    0.0100    0.0100    0.0100    0.0100    0.0100    0.0100    0.0100    0.0100
    0.0100    0.0100    0.0100    0.0100    0.0100    0.0100    0.0100    0.0100
    0.0100    0.0100    0.0100    0.0100    0.0100    0.0100    0.0100    0.0100
    0.0100    0.0100
   </PP_RAB>
 </PP_MESH>
  <PP_LOCAL type="real"  size=" 930" columns="4">
   -2.8945261867E+01   -3.0823604680E+01   -3.2389865310E+01   -3.2790605307E+01
   -3.2480889245E+01   -3.1973701951E+01   -3.1499148339E+01   -3.1115525809E+01
   -3.0814359201E+01   -3.0571685042E+01   -3.0365573354E+01   -3.0179713156E+01
   -3.0002821963E+01   -2.9827357353E+01   -2.9648448492E+01   -2.9463151733E+01
   -2.9269943454E+01   -2.9068355321E+01   -2.8858688496E+01   -2.8641773859E+01
   -2.8418766225E+01   -2.8190971853E+01   -2.7959712300E+01   -2.7726226540E+01
   -2.7491609906E+01   -2.7256784837E+01   -2.7022495985E+01   -2.6789321471E+01
   -2.6557692641E+01   -2.6327916215E+01   -2.6100194570E+01   -2.5874641605E+01
   -2.5651293191E+01   -2.5430112267E+01   -2.5210989539E+01   -2.4993741316E+01
   -2.4778106478E+01   -2.4563744771E+01   -2.4350238678E+01   -2.4137100809E+01
   -2.3923788146E+01   -2.3709723525E+01   -2.3494323556E+01   -2.3277030920E+01
   -2.3057347982E+01   -2.2834868021E+01   -2.2609300513E+01   -2.2380487550E+01
   -2.2148409806E+01   -2.1913181929E+01   -2.1675038681E+01   -2.1434314216E+01
   -2.1191417439E+01   -2.0946806353E+01   -2.0700963901E+01   -2.0454377049E+01
   -2.0207520146E+01   -1.9960842815E+01   -1.9714762158E+01   -1.9469658646E+01
   -1.9225874953E+01   -1.8983716910E+01   -1.8743455878E+01   -1.8505331917E+01
   -1.8269557280E+01   -1.8036319910E+01   -1.7805786694E+01   -1.7578106367E+01
   -1.7353411989E+01   -1.7131822989E+01   -1.6913446788E+01   -1.6698380054E+01
   -1.6486709610E+01   -1.6278513064E+01   -1.6073859203E+01   -1.5872808185E+01
   -1.5675411581E+01   -1.5481712288E+01   -1.5291744352E+01   -1.5105532711E+01
   -1.4923092887E+01   -1.4744430635E+01   -1.4569541567E+01   -1.4398410746E+01
   -1.4231012275E+01   -1.4067308874E+01   -1.3907251445E+01   -1.3750778641E+01
   -1.3597816425E+01   -1.3448277628E+01   -1.3302061513E+01   -1.3159053640E+01
   -1.3019132577E+01   -1.2882180759E+01   -1.2748086120E+01   -1.2616741926E+01
   -1.2488046623E+01   -1.2361903686E+01   -1.2238221484E+01   -1.2116913145E+01
   -1.1997896427E+01   -1.1881093592E+01   -1.1766431278E+01   -1.1653840371E+01
   -1.1543255878E+01   -1.1434616786E+01   -1.1327865927E+01   -1.1222949824E+01
   -1.1119818536E+01   -1.1018425488E+01   -1.0918727294E+01   -1.0820683562E+01
   -1.0724256696E+01   -1.0629411676E+01   -1.0536115840E+01   -1.0444338641E+01
   -1.0354051411E+01   -1.0265227113E+01   -1.0177840087E+01   -1.0091865804E+01
   -1.0007280616E+01   -9.9240615228E+00   -9.8421859426E+00   -9.7616314846E+00
   -9.6823757018E+00   -9.6043960749E+00   -9.5276698813E+00   -9.4521739238E+00
   -9.3778844939E+00   -9.3047773010E+00   -9.2328275309E+00   -9.1620103431E+00
   -9.0923011111E+00   -9.0236751119E+00   -8.9561076381E+00   -8.8895740539E+00
   -8.8240498676E+00   -8.7595108128E+00   -8.6959329335E+00   -8.6332926715E+00
   -8.5715669493E+00   -8.5107332267E+00   -8.4507696153E+00   -8.3916550196E+00
   -8.3333691044E+00   -8.2758923589E+00   -8.2192061633E+00   -8.1632926508E+00
   -8.1081351391E+00   -8.0537180980E+00   -8.0000265053E+00   -7.9470460389E+00
   -7.8947626653E+00   -7.8431627191E+00   -7.7922328888E+00   -7.7419602062E+00
   -7.6923320356E+00   -7.6433360631E+00   -7.5949602863E+00   -7.5471930045E+00
   -7.5000228096E+00   -7.4534385767E+00   -7.4074294554E+00   -7.3619848616E+00
   -7.3170944693E+00   -7.2727482026E+00   -7.2289362285E+00   -7.1856489492E+00
   -7.1428769957E+00   -7.1006112205E+00   -7.0588426913E+00   -7.0175626847E+00
   -6.9767626801E+00   -6.9364343542E+00   -6.8965695745E+00   -6.8571603947E+00
   -6.8181990490E+00   -6.7796779470E+00   -6.7415896691E+00   -6.7039269611E+00
   -6.6666827303E+00   -6.6298500407E+00   -6.5934221085E+00   -6.5573922985E+00
   -6.5217541194E+00   -6.4865012206E+00   -6.4516273877E+00   -6.4171265396E+00
   -6.3829927241E+00   -6.3492201156E+00   -6.3158030105E+00   -6.2827358251E+00
   -6.2500130918E+00   -6.2176294564E+00   -6.1855796751E+00   -6.1538586115E+00
   -6.1224612344E+00   -6.0913826144E+00   -6.0606179217E+00   -6.0301624238E+00
   -6.0000114828E+00   -5.9701605529E+00   -5.9406051784E+00   -5.9113409917E+00
   -5.8823637103E+00   -5.8536691357E+00   -5.8252531507E+00   -5.7971117178E+00
   -5.7692408771E+00   -5.7416367444E+00   -5.7142955095E+00   -5.6872134346E+00
   -5.6603868523E+00   -5.6338121640E+00   -5.6074858385E+00   -5.5814044102E+00
   -5.5555644778E+00   -5.5299627026E+00   -5.5045958071E+00   -5.4794605738E+00
   -5.4545538437E+00   -5.4298725149E+00   -5.4054135414E+00   -5.3811739319E+00
   -5.3571507483E+00   -5.3333411052E+00   -5.3097421677E+00   -5.2863511513E+00
   -5.2631653200E+00   -5.2401819860E+00   -5.2173985079E+00   -5.1948122902E+00
   -5.1724207821E+00   -5.1502214765E+00   -5.1282119094E+00   -5.1063896585E+00
   -5.0847523427E+00   -5.0632976210E+00   -5.0420231919E+00   -5.0209267922E+00
   -5.0000061965E+00   -4.9792592165E+00   -4.9586836998E+00   -4.9382775296E+00
   -4.9180386239E+00   -4.8979649343E+00   -4.8780544462E+00   -4.8583051773E+00
   -4.8387151773E+00   -4.8192825274E+00   -4.8000053394E+00   -4.7808817551E+00
   -4.7619099460E+00   -4.7430881123E+00   -4.7244144826E+00   -4.7058873135E+00
   -4.6875048886E+00   -4.6692655180E+00   -4.6511675375E+00   -4.6332093121E+00
   -4.6153892287E+00   -4.5977056959E+00   -4.5801571521E+00   -4.5627420591E+00
   -4.5454588992E+00   -4.5283061787E+00   -4.5112824267E+00   -4.4943861940E+00
   -4.4776160532E+00   -4.4609705981E+00   -4.4444484432E+00   -4.4280482237E+00
   -4.4117685946E+00   -4.3956082307E+00   -4.3795658263E+00   -4.3636400946E+00
   -4.3478297672E+00   -4.3321335945E+00   -4.3165503444E+00   -4.3010788027E+00
   -4.2857177727E+00   -4.2704660743E+00   -4.2553225446E+00   -4.2402860369E+00
   -4.2253554206E+00   -4.2105295812E+00   -4.1958074195E+00   -4.1811878517E+00
   -4.1666698093E+00   -4.1522522383E+00   -4.1379340994E+00   -4.1237143674E+00
   -4.1095920314E+00   -4.0955660940E+00   -4.0816355718E+00   -4.0677994942E+00
   -4.0540569042E+00   -4.0404068573E+00   -4.0268484220E+00   -4.0133806791E+00
   -4.0000027216E+00   -3.9867136546E+00   -3.9735125952E+00   -3.9603986720E+00
   -3.9473710250E+00   -3.9344288057E+00   -3.9215711765E+00   -3.9087973108E+00
   -3.8961063927E+00   -3.8834976169E+00   -3.8709701885E+00   -3.8585233227E+00
   -3.8461562450E+00   -3.8338681905E+00   -3.8216584043E+00   -3.8095261409E+00
   -3.7974706645E+00   -3.7854912482E+00   -3.7735871745E+00   -3.7617577349E+00
   -3.7500022296E+00   -3.7383199678E+00   -3.7267102669E+00   -3.7151724531E+00
   -3.7037058607E+00   -3.6923098323E+00   -3.6809837185E+00   -3.6697268779E+00
   -3.6585386769E+00   -3.6474184896E+00   -3.6363656977E+00   -3.6253796903E+00
   -3.6144598640E+00   -3.6036056226E+00   -3.5928163769E+00   -3.5820915449E+00
   -3.5714305514E+00   -3.5608328282E+00   -3.5502978137E+00   -3.5398249530E+00
   -3.5294136975E+00   -3.5190635054E+00   -3.5087738410E+00   -3.4985441748E+00
   -3.4883739837E+00   -3.4782627505E+00   -3.4682099639E+00   -3.4582151187E+00
   -3.4482777153E+00   -3.4383972600E+00   -3.4285732646E+00   -3.4188052466E+00
   -3.4090927290E+00   -3.3994352399E+00   -3.3898323131E+00   -3.3802834875E+00
   -3.3707883071E+00   -3.3613463212E+00   -3.3519570840E+00   -3.3426201546E+00
   -3.3333350973E+00   -3.3241014809E+00   -3.3149188790E+00   -3.3057868702E+00
   -3.2967050373E+00   -3.2876729681E+00   -3.2786902545E+00   -3.2697564932E+00
   -3.2608712851E+00   -3.2520342354E+00   -3.2432449536E+00   -3.2345030536E+00
   -3.2258081530E+00   -3.2171598741E+00   -3.2085578427E+00   -3.2000016889E+00
   -3.1914910466E+00   -3.1830255538E+00   -3.1746048519E+00   -3.1662285866E+00
   -3.1578964070E+00   -3.1496079659E+00   -3.1413629198E+00   -3.1331609289E+00
   -3.1250016568E+00   -3.1168847705E+00   -3.1088099407E+00   -3.1007768414E+00
   -3.0927851498E+00   -3.0848345466E+00   -3.0769247159E+00   -3.0690553446E+00
   -3.0612261233E+00   -3.0534367453E+00   -3.0456869074E+00   -3.0379763092E+00
   -3.0303046534E+00   -3.0226716458E+00   -3.0150769951E+00   -3.0075204127E+00
   -3.0000016134E+00   -2.9925203143E+00   -2.9850762356E+00   -2.9776691002E+00
   -2.9702986338E+00   -2.9629645648E+00   -2.9556666242E+00   -2.9484045458E+00
   -2.9411780658E+00   -2.9339869231E+00   -2.9268308591E+00   -2.9197096178E+00
   -2.9126229457E+00   -2.9055705916E+00   -2.8985523068E+00   -2.8915678451E+00
   -2.8846169625E+00   -2.8776994174E+00   -2.8708149707E+00   -2.8639633852E+00
   -2.8571444264E+00   -2.8503578616E+00   -2.8436034607E+00   -2.8368809954E+00
   -2.8301902398E+00   -2.8235309702E+00   -2.8169029647E+00   -2.8103060037E+00
   -2.8037398696E+00   -2.7972043468E+00   -2.7906992217E+00   -2.7842242829E+00