<UPF version="2.0.1">
  <PP_INFO>

 Os_ONCV_PBE_FR-1.0.upf

 This pseudopotential file has been produced using the code
 ONCVPSP  (Optimized Norm-Conservinng Vanderbilt PSeudopotential)
 fully-relativistic version 2.1.1, 03/26/2014 by D. R. Hamann
 The code is available through a link at URL www.mat-simresearch.com.
 Documentation with the package provides a full description of the
 input data below.

 While it is not required under the terms of the GNU GPL, it is
 suggested that you cite D. R. Hamann, Phys. Rev. B 88, 085117 (2013)
 in any publication using these pseudopotentials.

 -----

 This pseudopotential was produced with the SG15 1.0 and/or 1.1
 parameter sets, the Schlipf-Gygi norm-conserving pseudopotential
 library. For details of the construction and testing of the
 pseudopotential please refer to:

 M. Schlipf, F. Gygi, Comp. Phys. Comm. 196, 36 (2015)
 http://dx.doi.org/10.1016/j.cpc.2015.05.011

 The above authors kindly ask that you include this reference in all
 publications associated to this pseudopotential.

 Please note this fully-relativistic version does not employ the
 above self-consistent procedure at the fully-relativistic level.

 -----

 This pseudopotential was produced by Peter Scherpelz for the purpose
 of performing GW calculations with spin-orbit-coupling. Please see
 the publication:

 P. Scherpelz, M. Govoni, I. Hamada, G. Galli; J. Chem. Theory Comput. (2016)
 http://dx.doi.org/10.1021/acs.jctc.6b00114

 If you use these pseudopotentials in your work, we also kindly ask
 that you cite the above publication.

 -----

 This work is licensed under the Creative Commons Attribution-ShareAlike 
 4.0 International License. To view a copy of this license, visit 
 http://creativecommons.org/licenses/by-sa/4.0/ or send a letter to 
 Creative Commons, PO Box 1866, Mountain View, CA 94042, USA.

 The SG15 library is Copyright 2015 The Regents of the University of
 California.  Further modifications of these files are Copyright 2016
 Peter Scherpelz.

    <PP_INPUTFILE>
# ATOM AND REFERENCE CONFIGURATION
# atsym  z    nc    nv    iexc   psfile
  Os 76.00    10     4     4      upf
#
#   n    l    f        energy (Ha)
    1    0    2.00
    2    0    2.00
    2    1    6.00
    3    0    2.00
    3    1    6.00
    3    2   10.00
    4    0    2.00
    4    1    6.00
    4    2   10.00
    4    3   14.00
    5    0    2.00
    5    1    6.00
    6    0    2.00
    5    2    6.00
#
# PSEUDOPOTENTIAL AND OPTIMIZATION
# lmax
    3
#
#   l,   rc,     ep,   ncon, nbas, qcut
    0    1.75   -3.36    5    8    7.69
    1    1.85   -1.74    5    8    7.26
    2    1.50   -0.22    5    8    7.69
    3    2.59    0.25    5    8    4.80
#
# LOCAL POTENTIAL
# lloc, lpopt,  rc(5),   dvloc0
    4    5      1.19       0.00
#
# VANDERBILT-KLEINMAN-BYLANDER PROJECTORs
# l, nproj, debl
    0    2    3.1304
    1    2    1.7024
    2    2    0.7932
    3    2    1.2299
#
# MODEL CORE CHARGE
# icmod, fcfact
    0    0.00
#
# LOG DERIVATIVE ANALYSIS
# epsh1, epsh2, depsh
   -5.00    3.00    0.02
#
# OUTPUT GRID
# rlmax, drl
    6.00    0.01
#
# TEST CONFIGURATIONS
# ncnf
    0
# nvcnf
#   n    l    f
    </PP_INPUTFILE>
  </PP_INFO>
  <!--                               -->
  <!-- END OF HUMAN READABLE SECTION -->
  <!--                               -->
    <PP_HEADER
       generated="Generated using ONCVPSP code by D. R. Hamann"
       author="anonymous"
       date="150703"
       comment=""
       element="Os"
       pseudo_type="NC"
       relativistic="full"
       is_ultrasoft="F"
       is_paw="F"
       is_coulomb="F"
       has_so="T"
       has_wfc="F"
       has_gipaw="F"
       core_correction="F"
       functional="PBE"
       z_valence="   16.00"
       total_psenergy="  -9.17601064529E+01"
       rho_cutoff="   6.01000000000E+00"
       l_max="3"
       l_local="-1"
       mesh_size="   602"
       number_of_wfc="0"
       number_of_proj="14"/>
 <PP_MESH>
   <PP_R type="real"  size=" 602" columns="8">
    0.0000    0.0100    0.0200    0.0300    0.0400    0.0500    0.0600    0.0700
    0.0800    0.0900    0.1000    0.1100    0.1200    0.1300    0.1400    0.1500
    0.1600    0.1700    0.1800    0.1900    0.2000    0.2100    0.2200    0.2300
    0.2400    0.2500    0.2600    0.2700    0.2800    0.2900    0.3000    0.3100
    0.3200    0.3300    0.3400    0.3500    0.3600    0.3700    0.3800    0.3900
    0.4000    0.4100    0.4200    0.4300    0.4400    0.4500    0.4600    0.4700
    0.4800    0.4900    0.5000    0.5100    0.5200    0.5300    0.5400    0.5500
    0.5600    0.5700    0.5800    0.5900    0.6000    0.6100    0.6200    0.6300
    0.6400    0.6500    0.6600    0.6700    0.6800    0.6900    0.7000    0.7100
    0.7200    0.7300    0.7400    0.7500    0.7600    0.7700    0.7800    0.7900
    0.8000    0.8100    0.8200    0.8300    0.8400    0.8500    0.8600    0.8700
    0.8800    0.8900    0.9000    0.9100    0.9200    0.9300    0.9400    0.9500
    0.9600    0.9700    0.9800    0.9900    1.0000    1.0100    1.0200    1.0300
    1.0400    1.0500    1.0600    1.0700    1.0800    1.0900    1.1000    1.1100
    1.1200    1.1300    1.1400    1.1500    1.1600    1.1700    1.1800    1.1900
    1.2000    1.2100    1.2200    1.2300    1.2400    1.2500    1.2600    1.2700
    1.2800    1.2900    1.3000    1.3100    1.3200    1.3300    1.3400    1.3500
    1.3600    1.3700    1.3800    1.3900    1.4000    1.4100    1.4200    1.4300
    1.4400    1.4500    1.4600    1.4700    1.4800    1.4900    1.5000    1.5100
    1.5200    1.5300    1.5400    1.5500    1.5600    1.5700    1.5800    1.5900
    1.6000    1.6100    1.6200    1.6300    1.6400    1.6500    1.6600    1.6700
    1.6800    1.6900    1.7000    1.7100    1.7200    1.7300    1.7400    1.7500
    1.7600    1.7700    1.7800    1.7900    1.8000    1.8100    1.8200    1.8300
    1.8400    1.8500    1.8600    1.8700    1.8800    1.8900    1.9000    1.9100
    1.9200    1.9300    1.9400    1.9500    1.9600    1.9700    1.9800    1.9900
    2.0000    2.0100    2.0200    2.0300    2.0400    2.0500    2.0600    2.0700
    2.0800    2.0900    2.1000    2.1100    2.1200    2.1300    2.1400    2.1500
    2.1600    2.1700    2.1800    2.1900    2.2000    2.2100    2.2200    2.2300
    2.2400    2.2500    2.2600    2.2700    2.2800    2.2900    2.3000    2.3100
    2.3200    2.3300    2.3400    2.3500    2.3600    2.3700    2.3800    2.3900
    2.4000    2.4100    2.4200    2.4300    2.4400    2.4500    2.4600    2.4700
    2.4800    2.4900    2.5000    2.5100    2.5200    2.5300    2.5400    2.5500
    2.5600    2.5700    2.5800    2.5900    2.6000    2.6100    2.6200    2.6300
    2.6400    2.6500    2.6600    2.6700    2.6800    2.6900    2.7000    2.7100
    2.7200    2.7300    2.7400    2.7500    2.7600    2.7700    2.7800    2.7900
    2.8000    2.8100    2.8200    2.8300    2.8400    2.8500    2.8600    2.8700
    2.8800    2.8900    2.9000    2.9100    2.9200    2.9300    2.9400    2.9500
    2.9600    2.9700    2.9800    2.9900    3.0000    3.0100    3.0200    3.0300
    3.0400    3.0500    3.0600    3.0700    3.0800    3.0900    3.1000    3.1100
    3.1200    3.1300    3.1400    3.1500    3.1600    3.1700    3.1800    3.1900
    3.2000    3.2100    3.2200    3.2300    3.2400    3.2500    3.2600    3.2700
    3.2800    3.2900    3.3000    3.3100    3.3200    3.3300    3.3400    3.3500
    3.3600    3.3700    3.3800    3.3900    3.4000    3.4100    3.4200    3.4300
    3.4400    3.4500    3.4600    3.4700    3.4800    3.4900    3.5000    3.5100
    3.5200    3.5300    3.5400    3.5500    3.5600    3.5700    3.5800    3.5900
    3.6000    3.6100    3.6200    3.6300    3.6400    3.6500    3.6600    3.6700
    3.6800    3.6900    3.7000    3.7100    3.7200    3.7300    3.7400    3.7500
    3.7600    3.7700    3.7800    3.7900    3.8000    3.8100    3.8200    3.8300
    3.8400    3.8500    3.8600    3.8700    3.8800    3.8900    3.9000    3.9100
    3.9200    3.9300    3.9400    3.9500    3.9600    3.9700    3.9800    3.9900
    4.0000    4.0100    4.0200    4.0300    4.0400    4.0500    4.0600    4.0700
    4.0800    4.0900    4.1000    4.1100    4.1200    4.1300    4.1400    4.1500
    4.1600    4.1700    4.1800    4.1900    4.2000    4.2100    4.2200    4.2300
    4.2400    4.2500    4.2600    4.2700    4.2800    4.2900    4.3000    4.3100
    4.3200    4.3300    4.3400    4.3500    4.3600    4.3700    4.3800    4.3900
    4.4000    4.4100    4.4200    4.4300    4.4400    4.4500    4.4600    4.4700
    4.4800    4.4900    4.5000    4.5100    4.5200    4.5300    4.5400    4.5500
    4.5600    4.5700    4.5800    4.5900    4.6000    4.6100    4.6200    4.6300
    4.6400    4.6500    4.6600    4.6700    4.6800    4.6900    4.7000    4.7100
    4.7200    4.7300    4.7400    4.7500    4.7600    4.7700    4.7800    4.7900
    4.8000    4.8100    4.8200    4.8300    4.8400    4.8500    4.8600    4.8700
    4.8800    4.8900    4.9000    4.9100    4.9200    4.9300    4.9400    4.9500
    4.9600    4.9700    4.9800    4.9900    5.0000    5.0100    5.0200    5.0300
    5.0400    5.0500    5.0600    5.0700    5.0800    5.0900    5.1000    5.1100
    5.1200    5.1300    5.1400    5.1500    5.1600    5.1700    5.1800    5.1900
    5.2000    5.2100    5.2200    5.2300    5.2400    5.2500    5.2600    5.2700
    5.2800    5.2900    5.3000    5.3100    5.3200    5.3300    5.3400    5.3500
    5.3600    5.3700    5.3800    5.3900    5.4000    5.4100    5.4200    5.4300
    5.4400    5.4500    5.4600    5.4700    5.4800    5.4900    5.5000    5.5100
    5.5200    5.5300    5.5400    5.5500    5.5600    5.5700    5.5800    5.5900
    5.6000    5.6100    5.6200    5.6300    5.6400    5.6500    5.6600    5.6700
    5.6800    5.6900    5.7000    5.7100    5.7200    5.7300    5.7400    5.7500
    5.7600    5.7700    5.7800    5.7900    5.8000    5.8100    5.8200    5.8300
    5.8400    5.8500    5.8600    5.8700    5.8800    5.8900    5.9000    5.9100
    5.9200    5.9300    5.9400    5.9500    5.9600    5.9700    5.9800    5.9900
    6.0000    6.0100
   </PP_R>
   <PP_RAB type="real"  size=" 602" columns="8">
    0.0100    0.0100    0.0100    0.0100    0.0100    0.0100    0.0100    0.0100
    0.0100    0.0100    0.0100    0.0100    0.0100    0.0100    0.0100    0.0100
    0.0100    0.0100    0.0100    0.0100    0.0100    0.0100    0.0100    0.0100
    0.0100    0.0100    0.0100    0.0100    0.0100    0.0100    0.0100    0.0100
    0.0100    0.0100    0.0100    0.0100    0.0100    0.0100    0.0100    0.0100
    0.0100    0.0100    0.0100    0.0100    0.0100    0.0100    0.0100    0.0100
    0.0100    0.0100    0.0100    0.0100    0.0100    0.0100    0.0100    0.0100
    0.0100    0.0100    0.0100    0.0100    0.0100    0.0100    0.0100    0.0100
    0.0100    0.0100    0.0100    0.0100    0.0100    0.0100    0.0100    0.0100
    0.0100    0.0100    0.0100    0.0100    0.0100    0.0100    0.0100    0.0100
    0.0100    0.0100    0.0100    0.0100    0.0100    0.0100    0.0100    0.0100
    0.0100    0.0100    0.0100    0.0100    0.0100    0.0100    0.0100    0.0100
    0.0100    0.0100    0.0100    0.0100    0.0100    0.0100    0.0100    0.0100
    0.0100    0.0100    0.0100    0.0100    0.0100    0.0100    0.0100    0.0100
    0.0100    0.0100    0.0100    0.0100    0.0100    0.0100    0.0100    0.0100
    0.0100    0.0100    0.0100    0.0100    0.0100    0.0100    0.0100    0.0100
    0.0100    0.0100    0.0100    0.0100    0.0100    0.0100    0.0100    0.0100
    0.0100    0.0100    0.0100    0.0100    0.0100    0.0100    0.0100    0.0100
    0.0100    0.0100    0.0100    0.0100    0.0100    0.0100    0.0100    0.0100
    0.0100    0.0100    0.0100    0.0100    0.0100    0.0100    0.0100    0.0100
    0.0100    0.0100    0.0100    0.0100    0.0100    0.0100    0.0100    0.0100
    0.0100    0.0100    0.0100    0.0100    0.0100    0.0100    0.0100    0.0100
    0.0100    0.0100    0.0100    0.0100    0.0100    0.0100    0.0100    0.0100
    0.0100    0.0100    0.0100    0.0100    0.0100    0.0100    0.0100    0.0100
    0.0100    0.0100    0.0100    0.0100    0.0100    0.0100    0.0100    0.0100
    0.0100    0.0100    0.0100    0.0100    0.0100    0.0100    0.0100    0.0100
    0.0100    0.0100    0.0100    0.0100    0.0100    0.0100    0.0100    0.0100
    0.0100    0.0100    0.0100    0.0100    0.0100    0.0100    0.0100    0.0100
    0.0100    0.0100    0.0100    0.0100    0.0100    0.0100    0.0100    0.0100
    0.0100    0.0100    0.0100    0.0100    0.0100    0.0100    0.0100    0.0100
    0.0100    0.0100    0.0100    0.0100    0.0100    0.0100    0.0100    0.0100
    0.0100    0.0100    0.0100    0.0100    0.0100    0.0100    0.0100    0.0100
    0.0100    0.0100    0.0100    0.0100    0.0100    0.0100    0.0100    0.0100
    0.0100    0.0100    0.0100    0.0100    0.0100    0.0100    0.0100    0.0100
    0.0100    0.0100    0.0100    0.0100    0.0100    0.0100    0.0100    0.0100
    0.0100    0.0100    0.0100    0.0100    0.0100    0.0100    0.0100    0.0100
    0.0100    0.0100    0.0100    0.0100    0.0100    0.0100    0.0100    0.0100
    0.0100    0.0100    0.0100    0.0100    0.0100    0.0100    0.0100    0.0100
    0.0100    0.0100    0.0100    0.0100    0.0100    0.0100    0.0100    0.0100
    0.0100    0.0100    0.0100    0.0100    0.0100    0.0100    0.0100    0.0100
    0.0100    0.0100    0.0100    0.0100    0.0100    0.0100    0.0100    0.0100
    0.0100    0.0100    0.0100    0.0100    0.0100    0.0100    0.0100    0.0100
    0.0100    0.0100    0.0100    0.0100    0.0100    0.0100    0.0100    0.0100
    0.0100    0.0100    0.0100    0.0100    0.0100    0.0100    0.0100    0.0100
    0.0100    0.0100    0.0100    0.0100    0.0100    0.0100    0.0100    0.0100
    0.0100    0.0100    0.0100    0.0100    0.0100    0.0100    0.0100    0.0100
    0.0100    0.0100    0.0100    0.0100    0.0100    0.0100    0.0100    0.0100
    0.0100    0.0100    0.0100    0.0100    0.0100    0.0100    0.0100    0.0100
    0.0100    0.0100    0.0100    0.0100    0.0100    0.0100    0.0100    0.0100
    0.0100    0.0100    0.0100    0.0100    0.0100    0.0100    0.0100    0.0100
    0.0100    0.0100    0.0100    0.0100    0.0100    0.0100    0.0100    0.0100
    0.0100    0.0100    0.0100    0.0100    0.0100    0.0100    0.0100    0.0100
    0.0100    0.0100    0.0100    0.0100    0.0100    0.0100    0.0100    0.0100
    0.0100    0.0100    0.0100    0.0100    0.0100    0.0100    0.0100    0.0100
    0.0100    0.0100    0.0100    0.0100    0.0100    0.0100    0.0100    0.0100
    0.0100    0.0100    0.0100    0.0100    0.0100    0.0100    0.0100    0.0100
    0.0100    0.0100    0.0100    0.0100    0.0100    0.0100    0.0100    0.0100
    0.0100    0.0100    0.0100    0.0100    0.0100    0.0100    0.0100    0.0100
    0.0100    0.0100    0.0100    0.0100    0.0100    0.0100    0.0100    0.0100
    0.0100    0.0100    0.0100    0.0100    0.0100    0.0100    0.0100    0.0100
    0.0100    0.0100    0.0100    0.0100    0.0100    0.0100    0.0100    0.0100
    0.0100    0.0100    0.0100    0.0100    0.0100    0.0100    0.0100    0.0100
    0.0100    0.0100    0.0100    0.0100    0.0100    0.0100    0.0100    0.0100
    0.0100    0.0100    0.0100    0.0100    0.0100    0.0100    0.0100    0.0100
    0.0100    0.0100    0.0100    0.0100    0.0100    0.0100    0.0100    0.0100
    0.0100    0.0100    0.0100    0.0100    0.0100    0.0100    0.0100    0.0100
    0.0100    0.0100    0.0100    0.0100    0.0100    0.0100    0.0100    0.0100
    0.0100    0.0100    0.0100    0.0100    0.0100    0.0100    0.0100    0.0100
    0.0100    0.0100    0.0100    0.0100    0.0100    0.0100    0.0100    0.0100
    0.0100    0.0100    0.0100    0.0100    0.0100    0.0100    0.0100    0.0100
    0.0100    0.0100    0.0100    0.0100    0.0100    0.0100    0.0100    0.0100
    0.0100    0.0100    0.0100    0.0100    0.0100    0.0100    0.0100    0.0100
    0.0100    0.0100    0.0100    0.0100    0.0100    0.0100    0.0100    0.0100
    0.0100    0.0100    0.0100    0.0100    0.0100    0.0100    0.0100    0.0100
    0.0100    0.0100    0.0100    0.0100    0.0100    0.0100    0.0100    0.0100
    0.0100    0.0100
   </PP_RAB>
 </PP_MESH>
  <PP_LOCAL type="real"  size=" 602" columns="4">
   -6.2501703395E+01   -6.3696935023E+01   -6.4672155140E+01   -6.5298542096E+01
   -6.5447274238E+01   -6.5291946429E+01   -6.5004850427E+01   -6.4688931550E+01
   -6.4390129460E+01   -6.4121521168E+01   -6.3881268559E+01   -6.3662544954E+01
   -6.3457987640E+01   -6.3261278449E+01   -6.3067469934E+01   -6.2872859917E+01
   -6.2674754458E+01   -6.2471241835E+01   -6.2261009160E+01   -6.2043201607E+01
   -6.1817314914E+01   -6.1583112375E+01   -6.1340558754E+01   -6.1089766939E+01
   -6.0830954190E+01   -6.0564406493E+01   -6.0290449791E+01   -6.0009427653E+01
   -5.9721684510E+01   -5.9427553937E+01   -5.9127351158E+01   -5.8821369041E+01
   -5.8509876789E+01   -5.8193120525E+01   -5.7871325262E+01   -5.7544697572E+01
   -5.7213428555E+01   -5.6877696833E+01   -5.6537671315E+01   -5.6193513540E+01
   -5.5845379614E+01   -5.5493421664E+01   -5.5137788814E+01   -5.4778627732E+01
   -5.4416082794E+01   -5.4050295922E+01   -5.3681406151E+01   -5.3309549020E+01
   -5.2934855842E+01   -5.2557452866E+01   -5.2177460559E+01   -5.1794992966E+01
   -5.1410157162E+01   -5.1023052990E+01   -5.0633773255E+01   -5.0242403837E+01
   -4.9849024718E+01   -4.9453710876E+01   -4.9056533897E+01   -4.8657563656E+01
   -4.8256870322E+01   -4.7854526630E+01   -4.7450609877E+01   -4.7045204201E+01
   -4.6638402603E+01   -4.6230308290E+01   -4.5821036280E+01   -4.5410714346E+01
   -4.4999483146E+01   -4.4587496172E+01   -4.4174919687E+01   -4.3761931613E+01
   -4.3348720301E+01   -4.2935483201E+01   -4.2522425297E+01   -4.2109757470E+01
   -4.1697694954E+01   -4.1286455589E+01   -4.0876258412E+01   -4.0467322316E+01
   -4.0059864875E+01   -3.9654101336E+01   -3.9250243781E+01   -3.8848500453E+01
   -3.8449075220E+01   -3.8052167172E+01   -3.7657970323E+01   -3.7266673390E+01
   -3.6878459639E+01   -3.6493506775E+01   -3.6111986849E+01   -3.5734066176E+01
   -3.5359905243E+01   -3.4989658604E+01   -3.4623474743E+01   -3.4261495987E+01
   -3.3903858225E+01   -3.3550690439E+01   -3.3202114733E+01   -3.2858245883E+01
   -3.2519190974E+01   -3.2185048998E+01   -3.1855910728E+01   -3.1531857804E+01
   -3.1212961941E+01   -3.0899285211E+01   -3.0590879299E+01   -3.0287785440E+01
   -2.9990033683E+01   -2.9697640952E+01   -2.9410612668E+01   -2.9128941752E+01
   -2.8852610014E+01   -2.8581582504E+01   -2.8315812058E+01   -2.8055238093E+01
   -2.7799787790E+01   -2.7549369633E+01   -2.7303879523E+01   -2.7063200773E+01
   -2.6827198635E+01   -2.6595733533E+01   -2.6368666440E+01   -2.6145862350E+01
   -2.5927192241E+01   -2.5712530300E+01   -2.5501754022E+01   -2.5294747142E+01
   -2.5091396179E+01   -2.4891590823E+01   -2.4695227017E+01   -2.4502202968E+01
   -2.4312420548E+01   -2.4125787207E+01   -2.3942212052E+01   -2.3761608936E+01
   -2.3583895761E+01   -2.3408991587E+01   -2.3236821607E+01   -2.3067312298E+01
   -2.2900393100E+01   -2.2735997741E+01   -2.2574060230E+01   -2.2414519447E+01
   -2.2257314994E+01   -2.2102388876E+01   -2.1949685815E+01   -2.1799150538E+01
   -2.1650731594E+01   -2.1504377066E+01   -2.1360038024E+01   -2.1217666559E+01
   -2.1077216391E+01   -2.0938644292E+01   -2.0801907308E+01   -2.0666966739E+01
   -2.0533782981E+01   -2.0402319739E+01   -2.0272539577E+01   -2.0144409155E+01
   -2.0017894405E+01   -1.9892963914E+01   -1.9769586280E+01   -1.9647732125E+01
   -1.9527372453E+01   -1.9408479727E+01   -1.9291027025E+01   -1.9174988513E+01
   -1.9060339035E+01   -1.8947054309E+01   -1.8835110663E+01   -1.8724485203E+01
   -1.8615155497E+01   -1.8507099890E+01   -1.8400296977E+01   -1.8294726226E+01
   -1.8190367079E+01   -1.8087199888E+01   -1.7985204761E+01   -1.7884362851E+01
   -1.7784654829E+01   -1.7686062551E+01   -1.7588567304E+01   -1.7492151167E+01
   -1.7396795701E+01   -1.7302483445E+01   -1.7209196419E+01   -1.7116917820E+01
   -1.7025631047E+01   -1.6935319754E+01   -1.6845968699E+01   -1.6757562031E+01
   -1.6670085219E+01   -1.6583522822E+01   -1.6497860953E+01   -1.6413085185E+01
   -1.6329181772E+01   -1.6246137325E+01   -1.6163938205E+01   -1.6082571955E+01
   -1.6002025277E+01   -1.5922286197E+01   -1.5843342286E+01   -1.5765181552E+01
   -1.5687792579E+01   -1.5611163332E+01   -1.5535283141E+01   -1.5460140594E+01
   -1.5385725013E+01   -1.5312025954E+01   -1.5239032583E+01   -1.5166735223E+01
   -1.5095123502E+01   -1.5024187766E+01   -1.4953918561E+01   -1.4884305991E+01
   -1.4815341312E+01   -1.4747015146E+01   -1.4679318610E+01   -1.4612243225E+01
   -1.4545779908E+01   -1.4479920693E+01   -1.4414657193E+01   -1.4349981077E+01
   -1.4285884753E+01   -1.4222360061E+01   -1.4159399462E+01   -1.4096995600E+01
   -1.4035140596E+01   -1.3973827615E+01   -1.3913049429E+01   -1.3852798746E+01
   -1.3793069055E+01   -1.3733853351E+01   -1.3675144944E+01   -1.3616937556E+01
   -1.3559224437E+01   -1.3501999431E+01   -1.3445256487E+01   -1.3388989113E+01
   -1.3333191626E+01   -1.3277858196E+01   -1.3222982595E+01   -1.3168559548E+01
   -1.3114583409E+01   -1.3061048331E+01   -1.3007949273E+01   -1.2955280830E+01
   -1.2903037489E+01   -1.2851214439E+01   -1.2799806513E+01   -1.2748808489E+01
   -1.2698215778E+01   -1.2648023459E+01   -1.2598226551E+01   -1.2548820691E+01
   -1.2499801198E+01   -1.2451163296E+01   -1.2402902843E+01   -1.2355015400E+01
   -1.2307496359E+01   -1.2260341795E+01   -1.2213547513E+01   -1.2167109037E+01
   -1.2121022658E+01   -1.2075284381E+01   -1.2029889961E+01   -1.1984835773E+01
   -1.1940118051E+01   -1.1895732792E+01   -1.1851676411E+01   -1.1807945378E+01
   -1.1764535931E+01   -1.1721444498E+01   -1.1678667779E+01   -1.1636202257E+01
   -1.1594044350E+01   -1.1552190980E+01   -1.1510638853E+01   -1.1469384437E+01
   -1.1428424786E+01   -1.1387756788E+01   -1.1347377151E+01   -1.1307282852E+01
   -1.1267471016E+01   -1.1227938600E+01   -1.1188682482E+01   -1.1149700015E+01
   -1.1110988348E+01   -1.1072544434E+01   -1.1034365657E+01   -1.0996449358E+01
   -1.0958792738E+01   -1.0921393029E+01   -1.0884247806E+01   -1.0847354480E+01
   -1.0810710266E+01   -1.0774312815E+01   -1.0738159705E+01   -1.0702248399E+01
   -1.0666576352E+01   -1.0631141381E+01   -1.0595941129E+01   -1.0560973085E+01
   -1.0526235053E+01   -1.0491724860E+01   -1.0457440249E+01   -1.0423378790E+01
   -1.0389538547E+01   -1.0355917379E+01   -1.0322513060E+01   -1.0289323440E+01
   -1.0256346613E+01   -1.0223580540E+01   -1.0191023036E+01   -1.0158672196E+01
   -1.0126526147E+01   -1.0094582945E+01   -1.0062840458E+01   -1.0031296992E+01
   -9.9999507093E+00   -9.9687997347E+00   -9.9378420670E+00   -9.9070761163E+00
   -9.8765001150E+00   -9.8461122427E+00   -9.8159106575E+00   -9.7858938214E+00
   -9.7560600492E+00   -9.7264075839E+00   -9.6969347144E+00   -9.6676399591E+00
   -9.6385217114E+00   -9.6095782838E+00   -9.5808080689E+00   -9.5522096468E+00
   -9.5237814860E+00   -9.4955219739E+00   -9.4674295812E+00   -9.4395029554E+00
   -9.4117406362E+00   -9.3841410915E+00   -9.3567028459E+00   -9.3294246194E+00
   -9.3023050197E+00   -9.2753426001E+00   -9.2485359171E+00   -9.2218837675E+00
   -9.1953848239E+00   -9.1690377299E+00   -9.1428410533E+00   -9.1167936715E+00
   -9.0908943191E+00   -9.0651417306E+00   -9.0395344790E+00   -9.0140715128E+00
   -8.9887516296E+00   -8.9635736227E+00   -8.9385361633E+00   -8.9136381639E+00
   -8.8888785182E+00   -8.8642560759E+00   -8.8397696119E+00   -8.8154179849E+00
   -8.7912001871E+00   -8.7671151220E+00   -8.7431616740E+00   -8.7193386328E+00
   -8.6956450900E+00   -8.6720799999E+00   -8.6486423170E+00   -8.6253308837E+00
   -8.6021447571E+00   -8.5790829838E+00   -8.5561445667E+00   -8.5333284658E+00
   -8.5106336314E+00   -8.4880592210E+00   -8.4656042843E+00   -8.4432678707E+00
   -8.4210489145E+00   -8.3989465818E+00   -8.3769599989E+00   -8.3550882594E+00
   -8.3333304228E+00   -8.3116855167E+00   -8.2901527866E+00   -8.2687313686E+00
   -8.2474203985E+00   -8.2262189234E+00   -8.2051261397E+00   -8.1841412766E+00
   -8.1632635103E+00   -8.1424920171E+00   -8.1218258426E+00   -8.1012643254E+00
   -8.0808066847E+00   -8.0604521349E+00   -8.0401998563E+00   -8.0200490064E+00
   -7.9999989363E+00   -7.9800488971E+00   -7.9601981400E+00   -7.9404458526E+00
   -7.9207912966E+00   -7.9012338271E+00   -7.8817727300E+00   -7.8624072914E+00
   -7.8431367137E+00   -7.8239603418E+00   -7.8048775406E+00   -7.7858876293E+00
   -7.7669899273E+00   -7.7481836588E+00   -7.7294682310E+00   -7.7108430254E+00
   -7.6923073930E+00   -7.6738606848E+00   -7.6555021528E+00   -7.6372312476E+00
   -7.6190473738E+00   -7.6009499124E+00   -7.5829382448E+00   -7.5650116560E+00
   -7.5471696226E+00   -7.5294115780E+00   -7.5117369322E+00   -7.4941450952E+00
   -7.4766353907E+00   -7.4592073041E+00   -7.4418603037E+00   -7.4245938270E+00
   -7.4074073114E+00   -7.3903001241E+00   -7.3732717439E+00   -7.3563216791E+00
   -7.3394493934E+00   -7.3226543505E+00   -7.3059359661E+00   -7.2892936976E+00
   -7.2727270981E+00   -7.2562356562E+00   -7.2398188606E+00   -7.2234761807E+00
   -7.2072070390E+00   -7.1910110371E+00   -7.1748876874E+00   -7.1588365026E+00
   -7.1428569950E+00   -7.1269485863E+00   -7.1111108839E+00   -7.0953434379E+00
   -7.0796457836E+00   -7.0640174563E+00   -7.0484579404E+00   -7.0329667777E+00
   -7.0175435791E+00   -7.0021879015E+00   -6.9868993017E+00   -6.9716773325E+00
   -6.9565214595E+00   -6.9414313558E+00   -6.9264065991E+00   -6.9114467668E+00
   -6.8965514364E+00   -6.8817201322E+00   -6.8669524482E+00   -6.8522480284E+00
   -6.8376064699E+00   -6.8230273698E+00   -6.8085103254E+00   -6.7940548421E+00
   -6.7796606224E+00   -6.7653272862E+00   -6.7510544494E+00   -6.7368417282E+00
   -6.7226887077E+00   -6.7085949755E+00   -6.6945602297E+00   -6.6805841043E+00
   -6.6666662329E+00   -6.6528062495E+00   -6.6390037312E+00   -6.6252583423E+00
   -6.6115697699E+00   -6.5979376650E+00   -6.5843616785E+00   -6.5708414611E+00
   -6.5573765890E+00   -6.5439667860E+00   -6.5306117343E+00   -6.5173111012E+00
   -6.5040645538E+00   -6.4908717592E+00   -6.4777322987E+00   -6.4646459393E+00
   -6.4516123646E+00   -6.4386312575E+00   -6.4257023005E+00   -6.4128251700E+00
   -6.3999994769E+00   -6.3872249974E+00   -6.3745014290E+00   -6.3618284692E+00
   -6.3492058154E+00   -6.3366331579E+00   -6.3241101261E+00   -6.3116365076E+00
   -6.2992120140E+00   -6.2868363568E+00   -6.2745092476E+00   -6.2622303958E+00
   -6.2499994363E+00   -6.2378161729E+00   -6.2256803305E+00   -6.2135916342E+00
   -6.2015498090E+00   -6.1895545798E+00   -6.1776056005E+00   -6.1657026697E+00
   -6.1538455339E+00   -6.1420339309E+00   -6.1302675985E+00   -6.1185462745E+00
   -6.1068696426E+00   -6.0952374783E+00   -6.0836495561E+00   -6.0721056260E+00
   -6.0606054381E+00   -6.0491487425E+00   -6.0377352574E+00   -6.0263647238E+00
   -6.0150369486E+00   -6.0037516934E+00   -5.9925087199E+00   -5.9813077898E+00
   -5.9701486608E+00   -5.9590310289E+00   -5.9479547368E+00   -5.9369195573E+00
   -5.9259252632E+00   -5.9149716272E+00   -5.9040584222E+00   -5.8931853753E+00
   -5.8823522833E+00   -5.8715589576E+00   -5.8608051813E+00   -5.8500907379E+00
   -5.8394154108E+00   -5.8287789750E+00   -5.8181811604E+00   -5.8076218232E+00
   -5.7971007567E+00   -5.7866177545E+00   -5.7761726099E+00   -5.7657651164E+00
   -5.7553950306E+00   -5.7450621546E+00   -5.7347663245E+00   -5.7245073434E+00
   -5.7142850144E+00   -5.7040991407E+00   -5.6939495252E+00   -5.6838359126E+00
   -5.6737581627E+00   -5.6637160971E+00   -5.6537095280E+00   -5.6437382679E+00
   -5.6338021288E+00   -5.6239009154E+00   -5.6140343900E+00   -5.6042024321E+00
   -5.5944048626E+00   -5.5846415025E+00   -5.5749121728E+00   -5.5652166945E+00
   -5.5555548697E+00   -5.5459264944E+00   -5.5363314441E+00   -5.5267695481E+00
   -5.5172406358E+00   -5.5077445364E+00   -5.4982810794E+00   -5.4888500697E+00
   -5.4794513245E+00   -5.4700847205E+00   -5.4607500949E+00   -5.4514472849E+00
   -5.4421761280E+00   -5.4329364614E+00   -5.4237280981E+00   -5.4145508646E+00
   -5.4054046436E+00   -5.3962892800E+00   -5.3872046187E+00   -5.3781505044E+00
   -5.3691267822E+00   -5.3601332778E+00   -5.3511698157E+00   -5.3422362896E+00
   -5.3333325515E+00   -5.3244584536E+00
  </PP_LOCAL>
 <PP_NONLOCAL>
   <PP_BETA.1
       type="real"
       size=" 602"
       columns="4"
       index="1"
       angular_momentum="0"
       cutoff_radius_index=" 262"
       cutoff_radius="    2.6100000000E+00" >
    0.0000000000E+00    8.4552527037E-03    1.6966992999E-02    2.5590534808E-02
    3.4378856345E-02    4.3381461250E-02    5.2643274250E-02    6.2203582430E-02
    7.2095032862E-02    8.2342696839E-02    9.2963210500E-02    1.0396400098E-01
    1.1534260653E-01    1.2708609832E-01    1.3917061084E-01    1.5156098675E-01
    1.6421054148E-01    1.7706095130E-01    1.9004226814E-01    2.0307306298E-01
    2.1606069855E-01    2.2890173134E-01    2.4148244101E-01    2.5367948524E-01
    2.6536067460E-01    2.7638586767E-01    2.8660796926E-01    2.9587404264E-01
    3.0402650689E-01    3.1090442655E-01    3.1634487655E-01    3.2018437271E-01
    3.2226034812E-01    3.2241269468E-01    3.2048530404E-01    3.1632763502E-01
    3.0979629609E-01    3.0075660343E-01    2.8908408424E-01    2.7466600532E-01
    2.5740279308E-01    2.3720938912E-01    2.1401653917E-01    1.8777197913E-01
    1.5844151199E-01    1.2600996369E-01    9.0482006554E-02    5.1882833440E-02
    1.0258674569E-02   -3.4322753700E-02   -8.1772125620E-02   -1.3197848399E-01
   -1.8480929980E-01   -2.4011081320E-01   -2.9770862874E-01   -3.5740820173E-01
   -4.1899587434E-01   -4.8223976305E-01   -5.4689101562E-01   -6.1268514468E-01