<UPF version="2.0.1">
  <PP_INFO>

 Rh_ONCV_PBE_FR-1.0.upf

 This pseudopotential file has been produced using the code
 ONCVPSP  (Optimized Norm-Conservinng Vanderbilt PSeudopotential)
 fully-relativistic version 2.1.1, 03/26/2014 by D. R. Hamann
 The code is available through a link at URL www.mat-simresearch.com.
 Documentation with the package provides a full description of the
 input data below.

 While it is not required under the terms of the GNU GPL, it is
 suggested that you cite D. R. Hamann, Phys. Rev. B 88, 085117 (2013)
 in any publication using these pseudopotentials.

 -----

 This pseudopotential was produced with the SG15 1.0 and/or 1.1
 parameter sets, the Schlipf-Gygi norm-conserving pseudopotential
 library. For details of the construction and testing of the
 pseudopotential please refer to:

 M. Schlipf, F. Gygi, Comp. Phys. Comm. 196, 36 (2015)
 http://dx.doi.org/10.1016/j.cpc.2015.05.011

 The above authors kindly ask that you include this reference in all
 publications associated to this pseudopotential.

 Please note this fully-relativistic version does not employ the
 above self-consistent procedure at the fully-relativistic level.

 -----

 This pseudopotential was produced by Peter Scherpelz for the purpose
 of performing GW calculations with spin-orbit-coupling. Please see
 the publication:

 P. Scherpelz, M. Govoni, I. Hamada, G. Galli; J. Chem. Theory Comput. (2016)
 http://dx.doi.org/10.1021/acs.jctc.6b00114

 If you use these pseudopotentials in your work, we also kindly ask
 that you cite the above publication.

 -----

 This work is licensed under the Creative Commons Attribution-ShareAlike 
 4.0 International License. To view a copy of this license, visit 
 http://creativecommons.org/licenses/by-sa/4.0/ or send a letter to 
 Creative Commons, PO Box 1866, Mountain View, CA 94042, USA.

 The SG15 library is Copyright 2015 The Regents of the University of
 California.  Further modifications of these files are Copyright 2016
 Peter Scherpelz.

    <PP_INPUTFILE>
# ATOM AND REFERENCE CONFIGURATION
# atsym  z    nc    nv    iexc   psfile
  Rh 45.00     6     4     4      upf
#
#   n    l    f        energy (Ha)
    1    0    2.00
    2    0    2.00
    2    1    6.00
    3    0    2.00
    3    1    6.00
    3    2   10.00
    4    0    2.00
    4    1    6.00
    5    0    2.00
    4    2    7.00
#
# PSEUDOPOTENTIAL AND OPTIMIZATION
# lmax
    2
#
#   l,   rc,     ep,   ncon, nbas, qcut
    0    2.41   -3.16    5    8    5.70
    1    2.56   -1.93    5    8    5.59
    2    2.59   -0.31    5    8    5.53
#
# LOCAL POTENTIAL
# lloc, lpopt,  rc(5),   dvloc0
    4    5      1.53       0.00
#
# VANDERBILT-KLEINMAN-BYLANDER PROJECTORs
# l, nproj, debl
    0    2    2.9671
    1    2    1.8868
    2    2    1.6091
#
# MODEL CORE CHARGE
# icmod, fcfact
    0    0.00
#
# LOG DERIVATIVE ANALYSIS
# epsh1, epsh2, depsh
   -5.00    3.00    0.02
#
# OUTPUT GRID
# rlmax, drl
    6.00    0.01
#
# TEST CONFIGURATIONS
# ncnf
    0
# nvcnf
#   n    l    f
    </PP_INPUTFILE>
  </PP_INFO>
  <!--                               -->
  <!-- END OF HUMAN READABLE SECTION -->
  <!--                               -->
    <PP_HEADER
       generated="Generated using ONCVPSP code by D. R. Hamann"
       author="anonymous"
       date="150703"
       comment=""
       element="Rh"
       pseudo_type="NC"
       relativistic="full"
       is_ultrasoft="F"
       is_paw="F"
       is_coulomb="F"
       has_so="T"
       has_wfc="F"
       has_gipaw="F"
       core_correction="F"
       functional="PBE"
       z_valence="   17.00"
       total_psenergy="  -1.08184908437E+02"
       rho_cutoff="   6.01000000000E+00"
       l_max="2"
       l_local="-1"
       mesh_size="   602"
       number_of_wfc="0"
       number_of_proj="10"/>
 <PP_MESH>
   <PP_R type="real"  size=" 602" columns="8">
    0.0000    0.0100    0.0200    0.0300    0.0400    0.0500    0.0600    0.0700
    0.0800    0.0900    0.1000    0.1100    0.1200    0.1300    0.1400    0.1500
    0.1600    0.1700    0.1800    0.1900    0.2000    0.2100    0.2200    0.2300
    0.2400    0.2500    0.2600    0.2700    0.2800    0.2900    0.3000    0.3100
    0.3200    0.3300    0.3400    0.3500    0.3600    0.3700    0.3800    0.3900
    0.4000    0.4100    0.4200    0.4300    0.4400    0.4500    0.4600    0.4700
    0.4800    0.4900    0.5000    0.5100    0.5200    0.5300    0.5400    0.5500
    0.5600    0.5700    0.5800    0.5900    0.6000    0.6100    0.6200    0.6300
    0.6400    0.6500    0.6600    0.6700    0.6800    0.6900    0.7000    0.7100
    0.7200    0.7300    0.7400    0.7500    0.7600    0.7700    0.7800    0.7900
    0.8000    0.8100    0.8200    0.8300    0.8400    0.8500    0.8600    0.8700
    0.8800    0.8900    0.9000    0.9100    0.9200    0.9300    0.9400    0.9500
    0.9600    0.9700    0.9800    0.9900    1.0000    1.0100    1.0200    1.0300
    1.0400    1.0500    1.0600    1.0700    1.0800    1.0900    1.1000    1.1100
    1.1200    1.1300    1.1400    1.1500    1.1600    1.1700    1.1800    1.1900
    1.2000    1.2100    1.2200    1.2300    1.2400    1.2500    1.2600    1.2700
    1.2800    1.2900    1.3000    1.3100    1.3200    1.3300    1.3400    1.3500
    1.3600    1.3700    1.3800    1.3900    1.4000    1.4100    1.4200    1.4300
    1.4400    1.4500    1.4600    1.4700    1.4800    1.4900    1.5000    1.5100
    1.5200    1.5300    1.5400    1.5500    1.5600    1.5700    1.5800    1.5900
    1.6000    1.6100    1.6200    1.6300    1.6400    1.6500    1.6600    1.6700
    1.6800    1.6900    1.7000    1.7100    1.7200    1.7300    1.7400    1.7500
    1.7600    1.7700    1.7800    1.7900    1.8000    1.8100    1.8200    1.8300
    1.8400    1.8500    1.8600    1.8700    1.8800    1.8900    1.9000    1.9100
    1.9200    1.9300    1.9400    1.9500    1.9600    1.9700    1.9800    1.9900
    2.0000    2.0100    2.0200    2.0300    2.0400    2.0500    2.0600    2.0700
    2.0800    2.0900    2.1000    2.1100    2.1200    2.1300    2.1400    2.1500
    2.1600    2.1700    2.1800    2.1900    2.2000    2.2100    2.2200    2.2300
    2.2400    2.2500    2.2600    2.2700    2.2800    2.2900    2.3000    2.3100
    2.3200    2.3300    2.3400    2.3500    2.3600    2.3700    2.3800    2.3900
    2.4000    2.4100    2.4200    2.4300    2.4400    2.4500    2.4600    2.4700
    2.4800    2.4900    2.5000    2.5100    2.5200    2.5300    2.5400    2.5500
    2.5600    2.5700    2.5800    2.5900    2.6000    2.6100    2.6200    2.6300
    2.6400    2.6500    2.6600    2.6700    2.6800    2.6900    2.7000    2.7100
    2.7200    2.7300    2.7400    2.7500    2.7600    2.7700    2.7800    2.7900
    2.8000    2.8100    2.8200    2.8300    2.8400    2.8500    2.8600    2.8700
    2.8800    2.8900    2.9000    2.9100    2.9200    2.9300    2.9400    2.9500
    2.9600    2.9700    2.9800    2.9900    3.0000    3.0100    3.0200    3.0300
    3.0400    3.0500    3.0600    3.0700    3.0800    3.0900    3.1000    3.1100
    3.1200    3.1300    3.1400    3.1500    3.1600    3.1700    3.1800    3.1900
    3.2000    3.2100    3.2200    3.2300    3.2400    3.2500    3.2600    3.2700
    3.2800    3.2900    3.3000    3.3100    3.3200    3.3300    3.3400    3.3500
    3.3600    3.3700    3.3800    3.3900    3.4000    3.4100    3.4200    3.4300
    3.4400    3.4500    3.4600    3.4700    3.4800    3.4900    3.5000    3.5100
    3.5200    3.5300    3.5400    3.5500    3.5600    3.5700    3.5800    3.5900
    3.6000    3.6100    3.6200    3.6300    3.6400    3.6500    3.6600    3.6700
    3.6800    3.6900    3.7000    3.7100    3.7200    3.7300    3.7400    3.7500
    3.7600    3.7700    3.7800    3.7900    3.8000    3.8100    3.8200    3.8300
    3.8400    3.8500    3.8600    3.8700    3.8800    3.8900    3.9000    3.9100
    3.9200    3.9300    3.9400    3.9500    3.9600    3.9700    3.9800    3.9900
    4.0000    4.0100    4.0200    4.0300    4.0400    4.0500    4.0600    4.0700
    4.0800    4.0900    4.1000    4.1100    4.1200    4.1300    4.1400    4.1500
    4.1600    4.1700    4.1800    4.1900    4.2000    4.2100    4.2200    4.2300
    4.2400    4.2500    4.2600    4.2700    4.2800    4.2900    4.3000    4.3100
    4.3200    4.3300    4.3400    4.3500    4.3600    4.3700    4.3800    4.3900
    4.4000    4.4100    4.4200    4.4300    4.4400    4.4500    4.4600    4.4700
    4.4800    4.4900    4.5000    4.5100    4.5200    4.5300    4.5400    4.5500
    4.5600    4.5700    4.5800    4.5900    4.6000    4.6100    4.6200    4.6300
    4.6400    4.6500    4.6600    4.6700    4.6800    4.6900    4.7000    4.7100
    4.7200    4.7300    4.7400    4.7500    4.7600    4.7700    4.7800    4.7900
    4.8000    4.8100    4.8200    4.8300    4.8400    4.8500    4.8600    4.8700
    4.8800    4.8900    4.9000    4.9100    4.9200    4.9300    4.9400    4.9500
    4.9600    4.9700    4.9800    4.9900    5.0000    5.0100    5.0200    5.0300
    5.0400    5.0500    5.0600    5.0700    5.0800    5.0900    5.1000    5.1100
    5.1200    5.1300    5.1400    5.1500    5.1600    5.1700    5.1800    5.1900
    5.2000    5.2100    5.2200    5.2300    5.2400    5.2500    5.2600    5.2700
    5.2800    5.2900    5.3000    5.3100    5.3200    5.3300    5.3400    5.3500
    5.3600    5.3700    5.3800    5.3900    5.4000    5.4100    5.4200    5.4300
    5.4400    5.4500    5.4600    5.4700    5.4800    5.4900    5.5000    5.5100
    5.5200    5.5300    5.5400    5.5500    5.5600    5.5700    5.5800    5.5900
    5.6000    5.6100    5.6200    5.6300    5.6400    5.6500    5.6600    5.6700
    5.6800    5.6900    5.7000    5.7100    5.7200    5.7300    5.7400    5.7500
    5.7600    5.7700    5.7800    5.7900    5.8000    5.8100    5.8200    5.8300
    5.8400    5.8500    5.8600    5.8700    5.8800    5.8900    5.9000    5.9100
    5.9200    5.9300    5.9400    5.9500    5.9600    5.9700    5.9800    5.9900
    6.0000    6.0100
   </PP_R>
   <PP_RAB type="real"  size=" 602" columns="8">
    0.0100    0.0100    0.0100    0.0100    0.0100    0.0100    0.0100    0.0100
    0.0100    0.0100    0.0100    0.0100    0.0100    0.0100    0.0100    0.0100
    0.0100    0.0100    0.0100    0.0100    0.0100    0.0100    0.0100    0.0100
    0.0100    0.0100    0.0100    0.0100    0.0100    0.0100    0.0100    0.0100
    0.0100    0.0100    0.0100    0.0100    0.0100    0.0100    0.0100    0.0100
    0.0100    0.0100    0.0100    0.0100    0.0100    0.0100    0.0100    0.0100
    0.0100    0.0100    0.0100    0.0100    0.0100    0.0100    0.0100    0.0100
    0.0100    0.0100    0.0100    0.0100    0.0100    0.0100    0.0100    0.0100
    0.0100    0.0100    0.0100    0.0100    0.0100    0.0100    0.0100    0.0100
    0.0100    0.0100    0.0100    0.0100    0.0100    0.0100    0.0100    0.0100
    0.0100    0.0100    0.0100    0.0100    0.0100    0.0100    0.0100    0.0100
    0.0100    0.0100    0.0100    0.0100    0.0100    0.0100    0.0100    0.0100
    0.0100    0.0100    0.0100    0.0100    0.0100    0.0100    0.0100    0.0100
    0.0100    0.0100    0.0100    0.0100    0.0100    0.0100    0.0100    0.0100
    0.0100    0.0100    0.0100    0.0100    0.0100    0.0100    0.0100    0.0100
    0.0100    0.0100    0.0100    0.0100    0.0100    0.0100    0.0100    0.0100
    0.0100    0.0100    0.0100    0.0100    0.0100    0.0100    0.0100    0.0100
    0.0100    0.0100    0.0100    0.0100    0.0100    0.0100    0.0100    0.0100
    0.0100    0.0100    0.0100    0.0100    0.0100    0.0100    0.0100    0.0100
    0.0100    0.0100    0.0100    0.0100    0.0100    0.0100    0.0100    0.0100
    0.0100    0.0100    0.0100    0.0100    0.0100    0.0100    0.0100    0.0100
    0.0100    0.0100    0.0100    0.0100    0.0100    0.0100    0.0100    0.0100
    0.0100    0.0100    0.0100    0.0100    0.0100    0.0100    0.0100    0.0100
    0.0100    0.0100    0.0100    0.0100    0.0100    0.0100    0.0100    0.0100
    0.0100    0.0100    0.0100    0.0100    0.0100    0.0100    0.0100    0.0100
    0.0100    0.0100    0.0100    0.0100    0.0100    0.0100    0.0100    0.0100
    0.0100    0.0100    0.0100    0.0100    0.0100    0.0100    0.0100    0.0100
    0.0100    0.0100    0.0100    0.0100    0.0100    0.0100    0.0100    0.0100
    0.0100    0.0100    0.0100    0.0100    0.0100    0.0100    0.0100    0.0100
    0.0100    0.0100    0.0100    0.0100    0.0100    0.0100    0.0100    0.0100
    0.0100    0.0100    0.0100    0.0100    0.0100    0.0100    0.0100    0.0100
    0.0100    0.0100    0.0100    0.0100    0.0100    0.0100    0.0100    0.0100
    0.0100    0.0100    0.0100    0.0100    0.0100    0.0100    0.0100    0.0100
    0.0100    0.0100    0.0100    0.0100    0.0100    0.0100    0.0100    0.0100
    0.0100    0.0100    0.0100    0.0100    0.0100    0.0100    0.0100    0.0100
    0.0100    0.0100    0.0100    0.0100    0.0100    0.0100    0.0100    0.0100
    0.0100    0.0100    0.0100    0.0100    0.0100    0.0100    0.0100    0.0100
    0.0100    0.0100    0.0100    0.0100    0.0100    0.0100    0.0100    0.0100
    0.0100    0.0100    0.0100    0.0100    0.0100    0.0100    0.0100    0.0100
    0.0100    0.0100    0.0100    0.0100    0.0100    0.0100    0.0100    0.0100
    0.0100    0.0100    0.0100    0.0100    0.0100    0.0100    0.0100    0.0100
    0.0100    0.0100    0.0100    0.0100    0.0100    0.0100    0.0100    0.0100
    0.0100    0.0100    0.0100    0.0100    0.0100    0.0100    0.0100    0.0100
    0.0100    0.0100    0.0100    0.0100    0.0100    0.0100    0.0100    0.0100
    0.0100    0.0100    0.0100    0.0100    0.0100    0.0100    0.0100    0.0100
    0.0100    0.0100    0.0100    0.0100    0.0100    0.0100    0.0100    0.0100
    0.0100    0.0100    0.0100    0.0100    0.0100    0.0100    0.0100    0.0100
    0.0100    0.0100    0.0100    0.0100    0.0100    0.0100    0.0100    0.0100
    0.0100    0.0100    0.0100    0.0100    0.0100    0.0100    0.0100    0.0100
    0.0100    0.0100    0.0100    0.0100    0.0100    0.0100    0.0100    0.0100
    0.0100    0.0100    0.0100    0.0100    0.0100    0.0100    0.0100    0.0100
    0.0100    0.0100    0.0100    0.0100    0.0100    0.0100    0.0100    0.0100
    0.0100    0.0100    0.0100    0.0100    0.0100    0.0100    0.0100    0.0100
    0.0100    0.0100    0.0100    0.0100    0.0100    0.0100    0.0100    0.0100
    0.0100    0.0100    0.0100    0.0100    0.0100    0.0100    0.0100    0.0100
    0.0100    0.0100    0.0100    0.0100    0.0100    0.0100    0.0100    0.0100
    0.0100    0.0100    0.0100    0.0100    0.0100    0.0100    0.0100    0.0100
    0.0100    0.0100    0.0100    0.0100    0.0100    0.0100    0.0100    0.0100
    0.0100    0.0100    0.0100    0.0100    0.0100    0.0100    0.0100    0.0100
    0.0100    0.0100    0.0100    0.0100    0.0100    0.0100    0.0100    0.0100
    0.0100    0.0100    0.0100    0.0100    0.0100    0.0100    0.0100    0.0100
    0.0100    0.0100    0.0100    0.0100    0.0100    0.0100    0.0100    0.0100
    0.0100    0.0100    0.0100    0.0100    0.0100    0.0100    0.0100    0.0100
    0.0100    0.0100    0.0100    0.0100    0.0100    0.0100    0.0100    0.0100
    0.0100    0.0100    0.0100    0.0100    0.0100    0.0100    0.0100    0.0100
    0.0100    0.0100    0.0100    0.0100    0.0100    0.0100    0.0100    0.0100
    0.0100    0.0100    0.0100    0.0100    0.0100    0.0100    0.0100    0.0100
    0.0100    0.0100    0.0100    0.0100    0.0100    0.0100    0.0100    0.0100
    0.0100    0.0100    0.0100    0.0100    0.0100    0.0100    0.0100    0.0100
    0.0100    0.0100    0.0100    0.0100    0.0100    0.0100    0.0100    0.0100
    0.0100    0.0100    0.0100    0.0100    0.0100    0.0100    0.0100    0.0100
    0.0100    0.0100    0.0100    0.0100    0.0100    0.0100    0.0100    0.0100
    0.0100    0.0100    0.0100    0.0100    0.0100    0.0100    0.0100    0.0100
    0.0100    0.0100    0.0100    0.0100    0.0100    0.0100    0.0100    0.0100
    0.0100    0.0100    0.0100    0.0100    0.0100    0.0100    0.0100    0.0100
    0.0100    0.0100
   </PP_RAB>
 </PP_MESH>
  <PP_LOCAL type="real"  size=" 602" columns="4">
   -4.7489327269E+01   -4.7487600821E+01   -4.7482454219E+01   -4.7473851163E+01
   -4.7461755355E+01   -4.7446119349E+01   -4.7426887546E+01   -4.7403999551E+01
   -4.7377393620E+01   -4.7347009943E+01   -4.7312793554E+01   -4.7274696723E+01
   -4.7232680734E+01   -4.7186717039E+01   -4.7136787811E+01   -4.7082885973E+01
   -4.7025014783E+01   -4.6963187092E+01   -4.6897424367E+01   -4.6827755584E+01
   -4.6754216056E+01   -4.6676846276E+01   -4.6595690816E+01   -4.6510797310E+01
   -4.6422215549E+01   -4.6329996699E+01   -4.6234192633E+01   -4.6134855378E+01
   -4.6032036677E+01   -4.5925787637E+01   -4.5816158472E+01   -4.5703198311E+01
   -4.5586955077E+01   -4.5467475408E+01   -4.5344804628E+01   -4.5218986756E+01
   -4.5090064525E+01   -4.4958079446E+01   -4.4823071878E+01   -4.4685081101E+01
   -4.4544145420E+01   -4.4400302261E+01   -4.4253588278E+01   -4.4104039461E+01
   -4.3951691250E+01   -4.3796578649E+01   -4.3638736338E+01   -4.3478198790E+01
   -4.3315000383E+01   -4.3149175516E+01   -4.2980758721E+01   -4.2809784770E+01
   -4.2636288786E+01   -4.2460306357E+01   -4.2281873622E+01   -4.2101027393E+01
   -4.1917805233E+01   -4.1732245566E+01   -4.1544387749E+01   -4.1354272179E+01
   -4.1161940331E+01   -4.0967434895E+01   -4.0770799764E+01   -4.0572080161E+01
   -4.0371322665E+01   -4.0168575227E+01   -3.9963887264E+01   -3.9757309662E+01
   -3.9548894782E+01   -3.9338696465E+01   -3.9126770105E+01   -3.8913172581E+01
   -3.8697962259E+01   -3.8481198977E+01   -3.8262944011E+01   -3.8043260063E+01
   -3.7822211216E+01   -3.7599862866E+01   -3.7376281684E+01   -3.7151535555E+01
   -3.6925693516E+01   -3.6698825688E+01   -3.6471003205E+01   -3.6242298141E+01
   -3.6012783430E+01   -3.5782532791E+01   -3.5551620642E+01   -3.5320122017E+01
   -3.5088112487E+01   -3.4855668073E+01   -3.4622865157E+01   -3.4389780406E+01
   -3.4156490679E+01   -3.3923072948E+01   -3.3689604209E+01   -3.3456161408E+01
   -3.3222821357E+01   -3.2989660644E+01   -3.2756755557E+01   -3.2524182003E+01
   -3.2292015434E+01   -3.2060330765E+01   -3.1829202307E+01   -3.1598703731E+01
   -3.1368907855E+01   -3.1139886693E+01   -3.0911711355E+01   -3.0684451969E+01
   -3.0458177731E+01   -3.0232956489E+01   -3.0008854979E+01   -2.9785938677E+01
   -2.9564271871E+01   -2.9343917236E+01   -2.9124935948E+01   -2.8907387701E+01
   -2.8691330849E+01   -2.8476821603E+01   -2.8263914526E+01   -2.8052662565E+01
   -2.7843116832E+01   -2.7635325981E+01   -2.7429336930E+01   -2.7225195067E+01
   -2.7022942529E+01   -2.6822619702E+01   -2.6624265397E+01   -2.6427914824E+01
   -2.6233601209E+01   -2.6041356272E+01   -2.5851207538E+01   -2.5663180701E+01
   -2.5477299665E+01   -2.5293583722E+01   -2.5112050807E+01   -2.4932715956E+01
   -2.4755590035E+01   -2.4580682984E+01   -2.4407999949E+01   -2.4237543551E+01
   -2.4069314708E+01   -2.3903308559E+01   -2.3739519946E+01   -2.3577938513E+01
   -2.3418551284E+01   -2.3261343358E+01   -2.3106293797E+01   -2.2953382288E+01
   -2.2802581317E+01   -2.2653863171E+01   -2.2507195476E+01   -2.2362542565E+01
   -2.2219867132E+01   -2.2079126016E+01   -2.1940276026E+01   -2.1803271278E+01
   -2.1668066202E+01   -2.1534617450E+01   -2.1402881441E+01   -2.1272816765E+01
   -2.1144382298E+01   -2.1017538586E+01   -2.0892247086E+01   -2.0768470438E+01
   -2.0646172750E+01   -2.0525318892E+01   -2.0405875632E+01   -2.0287810179E+01
   -2.0171091891E+01   -2.0055690398E+01   -1.9941577503E+01   -1.9828725286E+01
   -1.9717107793E+01   -1.9606699517E+01   -1.9497476491E+01   -1.9389415521E+01
   -1.9282494357E+01   -1.9176691933E+01   -1.9071987451E+01   -1.8968361720E+01
   -1.8865795162E+01   -1.8764270148E+01   -1.8663768127E+01   -1.8564272679E+01
   -1.8465766197E+01   -1.8368233009E+01   -1.8271656586E+01   -1.8176021561E+01
   -1.8081312350E+01   -1.7987513856E+01   -1.7894611286E+01   -1.7802589774E+01
   -1.7711435314E+01   -1.7621133192E+01   -1.7531670166E+01   -1.7443032123E+01
   -1.7355206172E+01   -1.7268179262E+01   -1.7181938655E+01   -1.7096472824E+01
   -1.7011768982E+01   -1.6927817103E+01   -1.6844605592E+01   -1.6762124674E+01
   -1.6680364892E+01   -1.6599316301E+01   -1.6518971594E+01   -1.6439321581E+01
   -1.6360359704E+01   -1.6282078992E+01   -1.6204472474E+01   -1.6127535279E+01
   -1.6051260976E+01   -1.5975645212E+01   -1.5900683322E+01   -1.5826370486E+01
   -1.5752703213E+01   -1.5679677259E+01   -1.5607289006E+01   -1.5535534922E+01
   -1.5464411355E+01   -1.5393914680E+01   -1.5324041418E+01   -1.5254787813E+01
   -1.5186149780E+01   -1.5118123851E+01   -1.5050705350E+01   -1.4983889835E+01
   -1.4917673315E+01   -1.4852050089E+01   -1.4787015421E+01   -1.4722564101E+01
   -1.4658689862E+01   -1.4595387442E+01   -1.4532650422E+01   -1.4470472090E+01
   -1.4408846566E+01   -1.4347766522E+01   -1.4287224926E+01   -1.4227215200E+01
   -1.4167729618E+01   -1.4108760904E+01   -1.4050301841E+01   -1.3992344777E+01
   -1.3934882195E+01   -1.3877906596E+01   -1.3821410646E+01   -1.3765386772E+01
   -1.3709827575E+01   -1.3654726239E+01   -1.3600075376E+01   -1.3545867976E+01
   -1.3492097867E+01   -1.3438758048E+01   -1.3385842044E+01   -1.3333344501E+01
   -1.3281259059E+01   -1.3229579831E+01   -1.3178302324E+01   -1.3127421028E+01
   -1.3076930614E+01   -1.3026827285E+01   -1.2977106447E+01   -1.2927763419E+01
   -1.2878794331E+01   -1.2830194954E+01   -1.2781960899E+01   -1.2734088304E+01
   -1.2686573106E+01   -1.2639410939E+01   -1.2592598185E+01   -1.2546131028E+01
   -1.2500005413E+01   -1.2454217706E+01   -1.2408764331E+01   -1.2363641487E+01
   -1.2318845522E+01   -1.2274373104E+01   -1.2230220691E+01   -1.2186384591E+01
   -1.2142861708E+01   -1.2099648698E+01   -1.2056742004E+01   -1.2014138562E+01
   -1.1971835248E+01   -1.1929828761E+01   -1.1888115929E+01   -1.1846693877E+01
   -1.1805559569E+01   -1.1764709712E+01   -1.1724141664E+01   -1.1683852530E+01
   -1.1643839270E+01   -1.1604099083E+01   -1.1564629330E+01   -1.1525427238E+01
   -1.1486489830E+01   -1.1447814708E+01   -1.1409399240E+01   -1.1371240664E+01
   -1.1333336414E+01   -1.1295684106E+01   -1.1258281229E+01   -1.1221125056E+01
   -1.1184213384E+01   -1.1147543840E+01   -1.1111113958E+01   -1.1074921284E+01
   -1.1038963705E+01   -1.1003238939E+01   -1.0967744558E+01   -1.0932478406E+01
   -1.0897438397E+01   -1.0862622356E+01   -1.0828027905E+01   -1.0793653146E+01
   -1.0759496023E+01   -1.0725554428E+01   -1.0691826156E+01   -1.0658309412E+01
   -1.0625002220E+01   -1.0591902523E+01   -1.0559008318E+01   -1.0526317858E+01
   -1.0493829259E+01   -1.0461540527E+01   -1.0429449826E+01   -1.0397555465E+01
   -1.0365855645E+01   -1.0334348443E+01   -1.0303032159E+01   -1.0271905161E+01
   -1.0240965737E+01   -1.0210212036E+01   -1.0179642469E+01   -1.0149255468E+01
   -1.0119049402E+01   -1.0089022500E+01   -1.0059173253E+01   -1.0029500169E+01
   -1.0000001689E+01   -9.9706761299E+00   -9.9415220392E+00   -9.9125380008E+00
   -9.8837225303E+00   -9.8550740340E+00   -9.8265910920E+00   -9.7982723718E+00
   -9.7701164578E+00   -9.7421218526E+00   -9.7142871458E+00   -9.6866110928E+00
   -9.6590923443E+00   -9.6317295037E+00   -9.6045211500E+00   -9.5774661303E+00
   -9.5505631579E+00   -9.5238109426E+00   -9.4972080345E+00   -9.4707533744E+00
   -9.4444457357E+00   -9.4182838917E+00   -9.3922664891E+00   -9.3663924230E+00
   -9.3406605703E+00   -9.3150697614E+00   -9.2896187580E+00   -9.2643063794E+00
   -9.2391316118E+00   -9.2140933403E+00   -9.1891904472E+00   -9.1644216628E+00
   -9.1397860815E+00   -9.1152826401E+00   -9.0909102756E+00   -9.0666678319E+00
   -9.0425542975E+00   -9.0185687282E+00   -8.9947101105E+00   -8.9709774178E+00
   -8.9473695116E+00   -8.9238855669E+00   -8.9005246175E+00   -8.8772856969E+00
   -8.8541677560E+00   -8.8311698627E+00   -8.8082911679E+00   -8.7855307504E+00
   -8.7628876888E+00   -8.7403609244E+00   -8.7179497026E+00   -8.6956531554E+00
   -8.6734704044E+00   -8.6514005299E+00   -8.6294426001E+00   -8.6075958832E+00
   -8.5858595416E+00   -8.5642327380E+00   -8.5427145536E+00   -8.5213041907E+00
   -8.5000009139E+00   -8.4788039248E+00   -8.4577124252E+00   -8.4367255061E+00
   -8.4158424793E+00   -8.3950626129E+00   -8.3743851457E+00   -8.3538093165E+00
   -8.3333342343E+00   -8.3129592970E+00   -8.2926837834E+00   -8.2725069678E+00
   -8.2524281130E+00   -8.2324463869E+00   -8.2125612176E+00   -8.1927719133E+00
   -8.1730777821E+00   -8.1534781133E+00   -8.1339721273E+00   -8.1145592748E+00
   -8.0952388962E+00   -8.0760103319E+00   -8.0568729041E+00   -8.0378258668E+00
   -8.0188686992E+00   -8.0000007723E+00   -7.9812214573E+00   -7.9625301156E+00
   -7.9439260166E+00   -7.9254086738E+00   -7.9069774874E+00   -7.8886318578E+00
   -7.8703711855E+00   -7.8521947567E+00   -7.8341021061E+00   -7.8160926681E+00
   -7.7981658707E+00   -7.7803211424E+00   -7.7625578205E+00   -7.7448754164E+00
   -7.7272734129E+00   -7.7097512650E+00   -7.6923084277E+00   -7.6749442948E+00
   -7.6576583393E+00   -7.6404500973E+00   -7.6233190493E+00   -7.6062646755E+00
   -7.5892864319E+00   -7.5723837394E+00   -7.5555561911E+00   -7.5388032916E+00
   -7.5221245454E+00   -7.5055194571E+00   -7.4889874391E+00   -7.4725280890E+00
   -7.4561409524E+00   -7.4398255570E+00   -7.4235814306E+00   -7.4074080568E+00
   -7.3913049508E+00   -7.3752717269E+00   -7.3593079350E+00   -7.3434131245E+00
   -7.3275868453E+00   -7.3118285531E+00   -7.2961378988E+00   -7.2805144642E+00
   -7.2649578197E+00   -7.2494675361E+00   -7.2340431496E+00   -7.2186842024E+00
   -7.2033903540E+00   -7.1881611952E+00   -7.1729963167E+00   -7.1578953090E+00
   -7.1428576931E+00   -7.1278831109E+00   -7.1129712033E+00   -7.0981215802E+00
   -7.0833338512E+00   -7.0686076261E+00   -7.0539424187E+00   -7.0393379510E+00
   -7.0247938522E+00   -7.0103097501E+00   -6.9958852726E+00   -6.9815200265E+00
   -6.9672135894E+00   -6.9529656814E+00   -6.9387759477E+00   -6.9246440335E+00
   -6.9105695841E+00   -6.8965522092E+00   -6.8825915367E+00   -6.8686872871E+00
   -6.8548391221E+00   -6.8410467036E+00   -6.8273096933E+00   -6.8136277100E+00
   -6.8000004162E+00   -6.7864275386E+00   -6.7729087547E+00   -6.7594437422E+00
   -6.7460321785E+00   -6.7326736977E+00   -6.7193679811E+00   -6.7061147679E+00
   -6.6929137505E+00   -6.6797646216E+00   -6.6666670738E+00   -6.6536207618E+00
   -6.6406253716E+00   -6.6276806601E+00   -6.6147863343E+00   -6.6019421011E+00
   -6.5891476674E+00   -6.5764027141E+00   -6.5637069182E+00   -6.5510600597E+00
   -6.5384618594E+00   -6.5259120377E+00   -6.5134103151E+00   -6.5009564039E+00
   -6.4885499595E+00   -6.4761907900E+00   -6.4638786288E+00   -6.4516132095E+00
   -6.4393942657E+00   -6.4272215310E+00   -6.4150946719E+00   -6.4030134845E+00
   -6.3909777291E+00   -6.3789871518E+00   -6.3670414986E+00   -6.3551405154E+00
   -6.3432839101E+00   -6.3314714301E+00   -6.3197028753E+00   -6.3079780033E+00
   -6.2962965721E+00   -6.2846583395E+00   -6.2730630593E+00   -6.2615104206E+00
   -6.2500002654E+00   -6.2385323628E+00   -6.2271064819E+00   -6.2157223919E+00
   -6.2043798617E+00   -6.1930786190E+00   -6.1818184453E+00   -6.1705991551E+00
   -6.1594205284E+00   -6.1482823449E+00   -6.1371843845E+00   -6.1261264271E+00
   -6.1151081817E+00   -6.1041295059E+00   -6.0931901925E+00   -6.0822900317E+00
   -6.0714288135E+00   -6.0606063281E+00   -6.0498223433E+00   -6.0390766240E+00
   -6.0283690201E+00   -6.0176993318E+00   -6.0070673589E+00   -5.9964729012E+00
   -5.9859157587E+00   -5.9753956912E+00   -5.9649125126E+00   -5.9544660632E+00
   -5.9440561521E+00   -5.9336825887E+00   -5.9233451820E+00   -5.9130437414E+00
   -5.9027780248E+00   -5.8925478810E+00   -5.8823531461E+00   -5.8721936383E+00
   -5.8620691756E+00   -5.8519795761E+00   -5.8419246580E+00   -5.8319041829E+00
   -5.8219180212E+00   -5.8119660106E+00   -5.8020479776E+00   -5.7921637487E+00
   -5.7823131506E+00   -5.7724960098E+00   -5.7627120969E+00   -5.7529612914E+00
   -5.7432434378E+00   -5.7335583706E+00   -5.7239059245E+00   -5.7142859343E+00
   -5.7046982345E+00   -5.6951426095E+00   -5.6856189361E+00   -5.6761270706E+00
   -5.6666668554E+00   -5.6572381330E+00
  </PP_LOCAL>
 <PP_NONLOCAL>
   <PP_BETA.1
       type="real"
       size=" 602"
       columns="4"
       index="1"
       angular_momentum="0"
       cutoff_radius_index=" 262"
       cutoff_radius="    2.6100000000E+00" >
    0.0000000000E+00    8.8936946184E-05    1.6663828720E-04    2.2181475563E-04
    2.4307024239E-04    2.1884958104E-04    1.3738777201E-04   -1.3338883511E-05
   -2.4565927880E-04   -5.7225117597E-04   -1.0061816223E-03   -1.5609436861E-03
   -2.2504891080E-03   -3.0892564821E-03   -4.0921945998E-03   -5.2747806212E-03
   -6.6530327486E-03   -8.2435171243E-03   -1.0063348679E-02   -1.2130185713E-02
   -1.4462218001E-02   -1.7078148261E-02   -1.9997166858E-02   -2.3238919635E-02
   -2.6823468872E-02   -3.0771247182E-02   -3.5103004729E-02   -3.9839749231E-02
   -4.5002679593E-02   -5.0613112680E-02   -5.6692403698E-02   -6.3261860365E-02
   -7.0342651504E-02   -7.7955709193E-02   -8.6121626012E-02   -9.4860548811E-02
   -1.0419206452E-01   -1.1413508552E-01   -1.2470773151E-01   -1.3592720322E-01
   -1.4780966052E-01   -1.6037009509E-01   -1.7362220237E-01   -1.8757825319E-01
   -2.0224896550E-01   -2.1764337699E-01   -2.3376871933E-01   -2.5063029482E-01
   -2.6823136027E-01   -2.8657299966E-01   -3.0565401988E-01   -3.2547084747E-01
   -3.4601742437E-01   -3.6728510257E-01   -3.8926258720E-01   -4.1193582205E-01
   -4.3528795330E-01   -4.5929924716E-01   -4.8394705816E-01   -5.0920577208E-01
   -5.3504680922E-01   -5.6143856609E-01   -5.8834646475E-01   -6.1573292041E-01
   -6.4355738512E-01   -6.7177639629E-01   -7.0034360320E-01   -7.2920984860E-01