<UPF version="2.0.1">
  <PP_INFO>

 Sb_ONCV_PBE_FR-1.1.upf

 This pseudopotential file has been produced using the code
 ONCVPSP  (Optimized Norm-Conservinng Vanderbilt PSeudopotential)
 fully-relativistic version 2.1.1, 03/26/2014 by D. R. Hamann
 The code is available through a link at URL www.mat-simresearch.com.
 Documentation with the package provides a full description of the
 input data below.

 While it is not required under the terms of the GNU GPL, it is
 suggested that you cite D. R. Hamann, Phys. Rev. B 88, 085117 (2013)
 in any publication using these pseudopotentials.

 -----

 This pseudopotential was produced with the SG15 1.0 and/or 1.1
 parameter sets, the Schlipf-Gygi norm-conserving pseudopotential
 library. For details of the construction and testing of the
 pseudopotential please refer to:

 M. Schlipf, F. Gygi, Comp. Phys. Comm. 196, 36 (2015)
 http://dx.doi.org/10.1016/j.cpc.2015.05.011

 The above authors kindly ask that you include this reference in all
 publications associated to this pseudopotential.

 Please note this fully-relativistic version does not employ the
 above self-consistent procedure at the fully-relativistic level.

 -----

 This pseudopotential was produced by Peter Scherpelz for the purpose
 of performing GW calculations with spin-orbit-coupling. Please see
 the publication:

 P. Scherpelz, M. Govoni, I. Hamada, G. Galli; J. Chem. Theory Comput. (2016)
 http://dx.doi.org/10.1021/acs.jctc.6b00114

 If you use these pseudopotentials in your work, we also kindly ask
 that you cite the above publication.

 -----

 This work is licensed under the Creative Commons Attribution-ShareAlike 
 4.0 International License. To view a copy of this license, visit 
 http://creativecommons.org/licenses/by-sa/4.0/ or send a letter to 
 Creative Commons, PO Box 1866, Mountain View, CA 94042, USA.

 The SG15 library is Copyright 2015 The Regents of the University of
 California.  Further modifications of these files are Copyright 2016
 Peter Scherpelz.

    <PP_INPUTFILE>
# ATOM AND REFERENCE CONFIGURATION
# atsym  z    nc    nv    iexc   psfile
  Sb 51.00     8     3     4      upf
#
#   n    l    f        energy (Ha)
    1    0    2.00
    2    0    2.00
    2    1    6.00
    3    0    2.00
    3    1    6.00
    3    2   10.00
    4    0    2.00
    4    1    6.00
    4    2   10.00
    5    0    2.00
    5    1    3.00
#
# PSEUDOPOTENTIAL AND OPTIMIZATION
# lmax
    2
#
#   l,   rc,     ep,   ncon, nbas, qcut
    0    2.48   -0.47    5    8    3.03
    1    3.00   -0.17    5    8    4.19
    2    3.55   -1.21    5    8    7.05
#
# LOCAL POTENTIAL
# lloc, lpopt,  rc(5),   dvloc0
    4    5      1.84       0.00
#
# VANDERBILT-KLEINMAN-BYLANDER PROJECTORs
# l, nproj, debl
    0    2    1.6481
    1    2    0.3274
    2    2    1.2347
#
# MODEL CORE CHARGE
# icmod, fcfact
    0    0.00
#
# LOG DERIVATIVE ANALYSIS
# epsh1, epsh2, depsh
   -5.00    3.00    0.02
#
# OUTPUT GRID
# rlmax, drl
    6.00    0.01
#
# TEST CONFIGURATIONS
# ncnf
    0
# nvcnf
#   n    l    f
    </PP_INPUTFILE>
  </PP_INFO>
  <!--                               -->
  <!-- END OF HUMAN READABLE SECTION -->
  <!--                               -->
    <PP_HEADER
       generated="Generated using ONCVPSP code by D. R. Hamann"
       author="anonymous"
       date="150703"
       comment=""
       element="Sb"
       pseudo_type="NC"
       relativistic="full"
       is_ultrasoft="F"
       is_paw="F"
       is_coulomb="F"
       has_so="T"
       has_wfc="F"
       has_gipaw="F"
       core_correction="F"
       functional="PBE"
       z_valence="   15.00"
       total_psenergy="  -7.03865698384E+01"
       rho_cutoff="   6.01000000000E+00"
       l_max="2"
       l_local="-1"
       mesh_size="   602"
       number_of_wfc="0"
       number_of_proj="10"/>
 <PP_MESH>
   <PP_R type="real"  size=" 602" columns="8">
    0.0000    0.0100    0.0200    0.0300    0.0400    0.0500    0.0600    0.0700
    0.0800    0.0900    0.1000    0.1100    0.1200    0.1300    0.1400    0.1500
    0.1600    0.1700    0.1800    0.1900    0.2000    0.2100    0.2200    0.2300
    0.2400    0.2500    0.2600    0.2700    0.2800    0.2900    0.3000    0.3100
    0.3200    0.3300    0.3400    0.3500    0.3600    0.3700    0.3800    0.3900
    0.4000    0.4100    0.4200    0.4300    0.4400    0.4500    0.4600    0.4700
    0.4800    0.4900    0.5000    0.5100    0.5200    0.5300    0.5400    0.5500
    0.5600    0.5700    0.5800    0.5900    0.6000    0.6100    0.6200    0.6300
    0.6400    0.6500    0.6600    0.6700    0.6800    0.6900    0.7000    0.7100
    0.7200    0.7300    0.7400    0.7500    0.7600    0.7700    0.7800    0.7900
    0.8000    0.8100    0.8200    0.8300    0.8400    0.8500    0.8600    0.8700
    0.8800    0.8900    0.9000    0.9100    0.9200    0.9300    0.9400    0.9500
    0.9600    0.9700    0.9800    0.9900    1.0000    1.0100    1.0200    1.0300
    1.0400    1.0500    1.0600    1.0700    1.0800    1.0900    1.1000    1.1100
    1.1200    1.1300    1.1400    1.1500    1.1600    1.1700    1.1800    1.1900
    1.2000    1.2100    1.2200    1.2300    1.2400    1.2500    1.2600    1.2700
    1.2800    1.2900    1.3000    1.3100    1.3200    1.3300    1.3400    1.3500
    1.3600    1.3700    1.3800    1.3900    1.4000    1.4100    1.4200    1.4300
    1.4400    1.4500    1.4600    1.4700    1.4800    1.4900    1.5000    1.5100
    1.5200    1.5300    1.5400    1.5500    1.5600    1.5700    1.5800    1.5900
    1.6000    1.6100    1.6200    1.6300    1.6400    1.6500    1.6600    1.6700
    1.6800    1.6900    1.7000    1.7100    1.7200    1.7300    1.7400    1.7500
    1.7600    1.7700    1.7800    1.7900    1.8000    1.8100    1.8200    1.8300
    1.8400    1.8500    1.8600    1.8700    1.8800    1.8900    1.9000    1.9100
    1.9200    1.9300    1.9400    1.9500    1.9600    1.9700    1.9800    1.9900
    2.0000    2.0100    2.0200    2.0300    2.0400    2.0500    2.0600    2.0700
    2.0800    2.0900    2.1000    2.1100    2.1200    2.1300    2.1400    2.1500
    2.1600    2.1700    2.1800    2.1900    2.2000    2.2100    2.2200    2.2300
    2.2400    2.2500    2.2600    2.2700    2.2800    2.2900    2.3000    2.3100
    2.3200    2.3300    2.3400    2.3500    2.3600    2.3700    2.3800    2.3900
    2.4000    2.4100    2.4200    2.4300    2.4400    2.4500    2.4600    2.4700
    2.4800    2.4900    2.5000    2.5100    2.5200    2.5300    2.5400    2.5500
    2.5600    2.5700    2.5800    2.5900    2.6000    2.6100    2.6200    2.6300
    2.6400    2.6500    2.6600    2.6700    2.6800    2.6900    2.7000    2.7100
    2.7200    2.7300    2.7400    2.7500    2.7600    2.7700    2.7800    2.7900
    2.8000    2.8100    2.8200    2.8300    2.8400    2.8500    2.8600    2.8700
    2.8800    2.8900    2.9000    2.9100    2.9200    2.9300    2.9400    2.9500
    2.9600    2.9700    2.9800    2.9900    3.0000    3.0100    3.0200    3.0300
    3.0400    3.0500    3.0600    3.0700    3.0800    3.0900    3.1000    3.1100
    3.1200    3.1300    3.1400    3.1500    3.1600    3.1700    3.1800    3.1900
    3.2000    3.2100    3.2200    3.2300    3.2400    3.2500    3.2600    3.2700
    3.2800    3.2900    3.3000    3.3100    3.3200    3.3300    3.3400    3.3500
    3.3600    3.3700    3.3800    3.3900    3.4000    3.4100    3.4200    3.4300
    3.4400    3.4500    3.4600    3.4700    3.4800    3.4900    3.5000    3.5100
    3.5200    3.5300    3.5400    3.5500    3.5600    3.5700    3.5800    3.5900
    3.6000    3.6100    3.6200    3.6300    3.6400    3.6500    3.6600    3.6700
    3.6800    3.6900    3.7000    3.7100    3.7200    3.7300    3.7400    3.7500
    3.7600    3.7700    3.7800    3.7900    3.8000    3.8100    3.8200    3.8300
    3.8400    3.8500    3.8600    3.8700    3.8800    3.8900    3.9000    3.9100
    3.9200    3.9300    3.9400    3.9500    3.9600    3.9700    3.9800    3.9900
    4.0000    4.0100    4.0200    4.0300    4.0400    4.0500    4.0600    4.0700
    4.0800    4.0900    4.1000    4.1100    4.1200    4.1300    4.1400    4.1500
    4.1600    4.1700    4.1800    4.1900    4.2000    4.2100    4.2200    4.2300
    4.2400    4.2500    4.2600    4.2700    4.2800    4.2900    4.3000    4.3100
    4.3200    4.3300    4.3400    4.3500    4.3600    4.3700    4.3800    4.3900
    4.4000    4.4100    4.4200    4.4300    4.4400    4.4500    4.4600    4.4700
    4.4800    4.4900    4.5000    4.5100    4.5200    4.5300    4.5400    4.5500
    4.5600    4.5700    4.5800    4.5900    4.6000    4.6100    4.6200    4.6300
    4.6400    4.6500    4.6600    4.6700    4.6800    4.6900    4.7000    4.7100
    4.7200    4.7300    4.7400    4.7500    4.7600    4.7700    4.7800    4.7900
    4.8000    4.8100    4.8200    4.8300    4.8400    4.8500    4.8600    4.8700
    4.8800    4.8900    4.9000    4.9100    4.9200    4.9300    4.9400    4.9500
    4.9600    4.9700    4.9800    4.9900    5.0000    5.0100    5.0200    5.0300
    5.0400    5.0500    5.0600    5.0700    5.0800    5.0900    5.1000    5.1100
    5.1200    5.1300    5.1400    5.1500    5.1600    5.1700    5.1800    5.1900
    5.2000    5.2100    5.2200    5.2300    5.2400    5.2500    5.2600    5.2700
    5.2800    5.2900    5.3000    5.3100    5.3200    5.3300    5.3400    5.3500
    5.3600    5.3700    5.3800    5.3900    5.4000    5.4100    5.4200    5.4300
    5.4400    5.4500    5.4600    5.4700    5.4800    5.4900    5.5000    5.5100
    5.5200    5.5300    5.5400    5.5500    5.5600    5.5700    5.5800    5.5900
    5.6000    5.6100    5.6200    5.6300    5.6400    5.6500    5.6600    5.6700
    5.6800    5.6900    5.7000    5.7100    5.7200    5.7300    5.7400    5.7500
    5.7600    5.7700    5.7800    5.7900    5.8000    5.8100    5.8200    5.8300
    5.8400    5.8500    5.8600    5.8700    5.8800    5.8900    5.9000    5.9100
    5.9200    5.9300    5.9400    5.9500    5.9600    5.9700    5.9800    5.9900
    6.0000    6.0100
   </PP_R>
   <PP_RAB type="real"  size=" 602" columns="8">
    0.0100    0.0100    0.0100    0.0100    0.0100    0.0100    0.0100    0.0100
    0.0100    0.0100    0.0100    0.0100    0.0100    0.0100    0.0100    0.0100
    0.0100    0.0100    0.0100    0.0100    0.0100    0.0100    0.0100    0.0100
    0.0100    0.0100    0.0100    0.0100    0.0100    0.0100    0.0100    0.0100
    0.0100    0.0100    0.0100    0.0100    0.0100    0.0100    0.0100    0.0100
    0.0100    0.0100    0.0100    0.0100    0.0100    0.0100    0.0100    0.0100
    0.0100    0.0100    0.0100    0.0100    0.0100    0.0100    0.0100    0.0100
    0.0100    0.0100    0.0100    0.0100    0.0100    0.0100    0.0100    0.0100
    0.0100    0.0100    0.0100    0.0100    0.0100    0.0100    0.0100    0.0100
    0.0100    0.0100    0.0100    0.0100    0.0100    0.0100    0.0100    0.0100
    0.0100    0.0100    0.0100    0.0100    0.0100    0.0100    0.0100    0.0100
    0.0100    0.0100    0.0100    0.0100    0.0100    0.0100    0.0100    0.0100
    0.0100    0.0100    0.0100    0.0100    0.0100    0.0100    0.0100    0.0100
    0.0100    0.0100    0.0100    0.0100    0.0100    0.0100    0.0100    0.0100
    0.0100    0.0100    0.0100    0.0100    0.0100    0.0100    0.0100    0.0100
    0.0100    0.0100    0.0100    0.0100    0.0100    0.0100    0.0100    0.0100
    0.0100    0.0100    0.0100    0.0100    0.0100    0.0100    0.0100    0.0100
    0.0100    0.0100    0.0100    0.0100    0.0100    0.0100    0.0100    0.0100
    0.0100    0.0100    0.0100    0.0100    0.0100    0.0100    0.0100    0.0100
    0.0100    0.0100    0.0100    0.0100    0.0100    0.0100    0.0100    0.0100
    0.0100    0.0100    0.0100    0.0100    0.0100    0.0100    0.0100    0.0100
    0.0100    0.0100    0.0100    0.0100    0.0100    0.0100    0.0100    0.0100
    0.0100    0.0100    0.0100    0.0100    0.0100    0.0100    0.0100    0.0100
    0.0100    0.0100    0.0100    0.0100    0.0100    0.0100    0.0100    0.0100
    0.0100    0.0100    0.0100    0.0100    0.0100    0.0100    0.0100    0.0100
    0.0100    0.0100    0.0100    0.0100    0.0100    0.0100    0.0100    0.0100
    0.0100    0.0100    0.0100    0.0100    0.0100    0.0100    0.0100    0.0100
    0.0100    0.0100    0.0100    0.0100    0.0100    0.0100    0.0100    0.0100
    0.0100    0.0100    0.0100    0.0100    0.0100    0.0100    0.0100    0.0100
    0.0100    0.0100    0.0100    0.0100    0.0100    0.0100    0.0100    0.0100
    0.0100    0.0100    0.0100    0.0100    0.0100    0.0100    0.0100    0.0100
    0.0100    0.0100    0.0100    0.0100    0.0100    0.0100    0.0100    0.0100
    0.0100    0.0100    0.0100    0.0100    0.0100    0.0100    0.0100    0.0100
    0.0100    0.0100    0.0100    0.0100    0.0100    0.0100    0.0100    0.0100
    0.0100    0.0100    0.0100    0.0100    0.0100    0.0100    0.0100    0.0100
    0.0100    0.0100    0.0100    0.0100    0.0100    0.0100    0.0100    0.0100
    0.0100    0.0100    0.0100    0.0100    0.0100    0.0100    0.0100    0.0100
    0.0100    0.0100    0.0100    0.0100    0.0100    0.0100    0.0100    0.0100
    0.0100    0.0100    0.0100    0.0100    0.0100    0.0100    0.0100    0.0100
    0.0100    0.0100    0.0100    0.0100    0.0100    0.0100    0.0100    0.0100
    0.0100    0.0100    0.0100    0.0100    0.0100    0.0100    0.0100    0.0100
    0.0100    0.0100    0.0100    0.0100    0.0100    0.0100    0.0100    0.0100
    0.0100    0.0100    0.0100    0.0100    0.0100    0.0100    0.0100    0.0100
    0.0100    0.0100    0.0100    0.0100    0.0100    0.0100    0.0100    0.0100
    0.0100    0.0100    0.0100    0.0100    0.0100    0.0100    0.0100    0.0100
    0.0100    0.0100    0.0100    0.0100    0.0100    0.0100    0.0100    0.0100
    0.0100    0.0100    0.0100    0.0100    0.0100    0.0100    0.0100    0.0100
    0.0100    0.0100    0.0100    0.0100    0.0100    0.0100    0.0100    0.0100
    0.0100    0.0100    0.0100    0.0100    0.0100    0.0100    0.0100    0.0100
    0.0100    0.0100    0.0100    0.0100    0.0100    0.0100    0.0100    0.0100
    0.0100    0.0100    0.0100    0.0100    0.0100    0.0100    0.0100    0.0100
    0.0100    0.0100    0.0100    0.0100    0.0100    0.0100    0.0100    0.0100
    0.0100    0.0100    0.0100    0.0100    0.0100    0.0100    0.0100    0.0100
    0.0100    0.0100    0.0100    0.0100    0.0100    0.0100    0.0100    0.0100
    0.0100    0.0100    0.0100    0.0100    0.0100    0.0100    0.0100    0.0100
    0.0100    0.0100    0.0100    0.0100    0.0100    0.0100    0.0100    0.0100
    0.0100    0.0100    0.0100    0.0100    0.0100    0.0100    0.0100    0.0100
    0.0100    0.0100    0.0100    0.0100    0.0100    0.0100    0.0100    0.0100
    0.0100    0.0100    0.0100    0.0100    0.0100    0.0100    0.0100    0.0100
    0.0100    0.0100    0.0100    0.0100    0.0100    0.0100    0.0100    0.0100
    0.0100    0.0100    0.0100    0.0100    0.0100    0.0100    0.0100    0.0100
    0.0100    0.0100    0.0100    0.0100    0.0100    0.0100    0.0100    0.0100
    0.0100    0.0100    0.0100    0.0100    0.0100    0.0100    0.0100    0.0100
    0.0100    0.0100    0.0100    0.0100    0.0100    0.0100    0.0100    0.0100
    0.0100    0.0100    0.0100    0.0100    0.0100    0.0100    0.0100    0.0100
    0.0100    0.0100    0.0100    0.0100    0.0100    0.0100    0.0100    0.0100
    0.0100    0.0100    0.0100    0.0100    0.0100    0.0100    0.0100    0.0100
    0.0100    0.0100    0.0100    0.0100    0.0100    0.0100    0.0100    0.0100
    0.0100    0.0100    0.0100    0.0100    0.0100    0.0100    0.0100    0.0100
    0.0100    0.0100    0.0100    0.0100    0.0100    0.0100    0.0100    0.0100
    0.0100    0.0100    0.0100    0.0100    0.0100    0.0100    0.0100    0.0100
    0.0100    0.0100    0.0100    0.0100    0.0100    0.0100    0.0100    0.0100
    0.0100    0.0100    0.0100    0.0100    0.0100    0.0100    0.0100    0.0100
    0.0100    0.0100    0.0100    0.0100    0.0100    0.0100    0.0100    0.0100
    0.0100    0.0100    0.0100    0.0100    0.0100    0.0100    0.0100    0.0100
    0.0100    0.0100
   </PP_RAB>
 </PP_MESH>
  <PP_LOCAL type="real"  size=" 602" columns="4">
   -3.3075680685E+01   -3.2927652901E+01   -3.3212448481E+01   -3.3866698472E+01
   -3.4827033918E+01   -3.5334338959E+01   -3.4705160664E+01   -3.3578657984E+01
   -3.2821397001E+01   -3.2529690141E+01   -3.2474261519E+01   -3.2488954548E+01
   -3.2507110376E+01   -3.2511752135E+01   -3.2502553505E+01   -3.2482792908E+01
   -3.2455555939E+01   -3.2423068681E+01   -3.2386840999E+01   -3.2347914787E+01
   -3.2307053679E+01   -3.2264862948E+01   -3.2221858300E+01   -3.2178502387E+01
   -3.2135221631E+01   -3.2092411149E+01   -3.2050432212E+01   -3.2009605005E+01
   -3.1970198218E+01   -3.1932416708E+01   -3.1896388364E+01   -3.1862151009E+01
   -3.1829640589E+01   -3.1798681940E+01   -3.1768983103E+01   -3.1740134016E+01
   -3.1711611533E+01   -3.1682789933E+01   -3.1652958017E+01   -3.1621342404E+01
   -3.1587135587E+01   -3.1549527778E+01   -3.1507740846E+01   -3.1461061905E+01
   -3.1408874627E+01   -3.1350686000E+01   -3.1286147636E+01   -3.1215068723E+01
   -3.1137421080E+01   -3.1053335579E+01   -3.0963089932E+01   -3.0867092436E+01
   -3.0765855502E+01   -3.0659968441E+01   -3.0550069490E+01   -3.0436815409E+01
   -3.0320855798E+01   -3.0202810326E+01   -3.0083250494E+01   -2.9962688062E+01
   -2.9841565735E+01   -2.9720258196E+01   -2.9599068709E+01   -2.9478237738E+01
   -2.9357948023E+01   -2.9238330696E+01   -2.9119475316E+01   -2.9001437072E+01
   -2.8884242484E+01   -2.8767897017E+01   -2.8652389831E+01   -2.8537697998E+01
   -2.8423789627E+01   -2.8310626486E+01   -2.8198165842E+01   -2.8086361604E+01
   -2.7975165072E+01   -2.7864525329E+01   -2.7754389367E+01   -2.7644702045E+01
   -2.7535405873E+01   -2.7426440824E+01   -2.7317744103E+01   -2.7209249962E+01
   -2.7100889600E+01   -2.6992591172E+01   -2.6884279947E+01   -2.6775878614E+01
   -2.6667307765E+01   -2.6558486543E+01   -2.6449333452E+01   -2.6339767301E+01
   -2.6229708353E+01   -2.6119079494E+01   -2.6007807480E+01   -2.5895824204E+01
   -2.5783067912E+01   -2.5669484336E+01   -2.5555027701E+01   -2.5439661454E+01
   -2.5323358709E+01   -2.5206103803E+01   -2.5087891262E+01   -2.4968726085E+01
   -2.4848623429E+01   -2.4727607783E+01   -2.4605713039E+01   -2.4482981654E+01
   -2.4359462843E+01   -2.4235211925E+01   -2.4110289037E+01   -2.3984759117E+01
   -2.3858689669E+01   -2.3732150064E+01   -2.3605210842E+01   -2.3477942933E+01
   -2.3350416562E+01   -2.3222700931E+01   -2.3094864097E+01   -2.2966971392E+01
   -2.2839086113E+01   -2.2711269561E+01   -2.2583579772E+01   -2.2456071953E+01
   -2.2328799206E+01   -2.2201811599E+01   -2.2075156048E+01   -2.1948877715E+01
   -2.1823019017E+01   -2.1697619500E+01   -2.1572717409E+01   -2.1448348388E+01
   -2.1324545884E+01   -2.1201342439E+01   -2.1078767943E+01   -2.0956850994E+01
   -2.0835619369E+01   -2.0715098254E+01   -2.0595312474E+01   -2.0476285303E+01
   -2.0358038453E+01   -2.0240593456E+01   -2.0123969541E+01   -2.0008185740E+01
   -1.9893259771E+01   -1.9779207983E+01   -1.9666046623E+01   -1.9553789633E+01
   -1.9442451193E+01   -1.9332043515E+01   -1.9222578293E+01   -1.9114066185E+01
   -1.9006516296E+01   -1.8899937685E+01   -1.8794336868E+01   -1.8689721146E+01
   -1.8586094679E+01   -1.8483462427E+01   -1.8381826661E+01   -1.8281189805E+01
   -1.8181552213E+01   -1.8082913787E+01   -1.7985272938E+01   -1.7888627109E+01
   -1.7792972745E+01   -1.7698304946E+01   -1.7604618187E+01   -1.7511905388E+01
   -1.7420159070E+01   -1.7329370169E+01   -1.7239529309E+01   -1.7150625658E+01
   -1.7062648028E+01   -1.6975584048E+01   -1.6889420836E+01   -1.6804144706E+01
   -1.6719741219E+01   -1.6636195577E+01   -1.6553491940E+01   -1.6471614562E+01
   -1.6390546344E+01   -1.6310270734E+01   -1.6230769459E+01   -1.6152025209E+01
   -1.6074018889E+01   -1.5996731544E+01   -1.5920145384E+01   -1.5844241510E+01
   -1.5769003630E+01   -1.5694415675E+01   -1.5620462228E+01   -1.5547130073E+01
   -1.5474404604E+01   -1.5402274874E+01   -1.5330727773E+01   -1.5259753315E+01
   -1.5189340585E+01   -1.5119479716E+01   -1.5050161665E+01   -1.4981376813E+01
   -1.4913117115E+01   -1.4845373694E+01   -1.4778138560E+01   -1.4711403601E+01
   -1.4645160721E+01   -1.4579402002E+01   -1.4514119491E+01   -1.4449305108E+01
   -1.4384950856E+01   -1.4321048642E+01   -1.4257590284E+01   -1.4194567626E+01
   -1.4131972580E+01   -1.4069796879E+01   -1.4008032573E+01   -1.3946671995E+01
   -1.3885706717E+01   -1.3825130164E+01   -1.3764934762E+01   -1.3705113537E+01
   -1.3645661156E+01   -1.3586570386E+01   -1.3527837104E+01   -1.3469456839E+01
   -1.3411423930E+01   -1.3353736999E+01   -1.3296392219E+01   -1.3239387288E+01
   -1.3182722080E+01   -1.3126394084E+01   -1.3070404080E+01   -1.3014752852E+01
   -1.2959439483E+01   -1.2904466743E+01   -1.2849835920E+01   -1.2795548259E+01
   -1.2741606579E+01   -1.2688012974E+01   -1.2634769682E+01   -1.2581879207E+01
   -1.2529344143E+01   -1.2477166628E+01   -1.2425348594E+01   -1.2373892744E+01
   -1.2322800335E+01   -1.2272072556E+01   -1.2221711762E+01   -1.2171718008E+01
   -1.2122091651E+01   -1.2072834258E+01   -1.2023944854E+01   -1.1975423023E+01
   -1.1927269424E+01   -1.1879482324E+01   -1.1832060588E+01   -1.1785004085E+01
   -1.1738310424E+01   -1.1691977746E+01   -1.1646004994E+01   -1.1600389462E+01
   -1.1555128725E+01   -1.1510221000E+01   -1.1465663368E+01   -1.1421452937E+01
   -1.1377587287E+01   -1.1334063406E+01   -1.1290878103E+01   -1.1248028503E+01
   -1.1205511534E+01   -1.1163323836E+01   -1.1121462255E+01   -1.1079923637E+01
   -1.1038704590E+01   -1.0997801830E+01   -1.0957212097E+01   -1.0916932061E+01
   -1.0876958422E+01   -1.0837287832E+01   -1.0797917043E+01   -1.0758842804E+01
   -1.0720061794E+01   -1.0681570758E+01   -1.0643366565E+01   -1.0605446001E+01
   -1.0567805748E+01   -1.0530442828E+01   -1.0493354125E+01   -1.0456536407E+01
   -1.0419986683E+01   -1.0383701984E+01   -1.0347679244E+01   -1.0311915375E+01
   -1.0276407577E+01   -1.0241152917E+01   -1.0206148331E+01   -1.0171391046E+01
   -1.0136878261E+01   -1.0102607076E+01   -1.0068574575E+01   -1.0034778172E+01
   -1.0001215125E+01   -9.9678824716E+00   -9.9347776994E+00   -9.9018983246E+00
   -9.8692417275E+00   -9.8368050495E+00   -9.8045862011E+00   -9.7725827706E+00
   -9.7407922174E+00   -9.7092121559E+00   -9.6778404657E+00   -9.6466748667E+00
   -9.6157128406E+00   -9.5849523706E+00   -9.5543914002E+00   -9.5240277866E+00
   -9.4938591174E+00   -9.4638836685E+00   -9.4340994343E+00   -9.4045043369E+00
   -9.3750962503E+00   -9.3458735150E+00   -9.3168342510E+00   -9.2879764594E+00
   -9.2592982601E+00   -9.2307980561E+00   -9.2024740848E+00   -9.1743244364E+00
   -9.1463474287E+00   -9.1185415326E+00   -9.0909050946E+00   -9.0634363021E+00
   -9.0361336257E+00   -9.0089956092E+00   -8.9820207002E+00   -8.9552071881E+00
   -8.9285536553E+00   -8.9020587239E+00   -8.8757209336E+00   -8.8495386792E+00
   -8.8235106190E+00   -8.7976354572E+00   -8.7719118180E+00   -8.7463382020E+00
   -8.7209133139E+00   -8.6956359420E+00   -8.6705047876E+00   -8.6455184570E+00
   -8.6206756765E+00   -8.5959753196E+00   -8.5714161576E+00   -8.5469969023E+00
   -8.5227162812E+00   -8.4985732524E+00   -8.4745666512E+00   -8.4506952933E+00
   -8.4269578937E+00   -8.4033534904E+00   -8.3798809762E+00   -8.3565392438E+00
   -8.3333270550E+00   -8.3102434540E+00   -8.2872874088E+00   -8.2644578640E+00
   -8.2417536822E+00   -8.2191738475E+00   -8.1967174224E+00   -8.1743834009E+00
   -8.1521707491E+00   -8.1300783784E+00   -8.1081054469E+00   -8.0862509949E+00
   -8.0645140630E+00   -8.0428935816E+00   -8.0213887009E+00   -7.9999985399E+00
   -7.9787221836E+00   -7.9575586739E+00   -7.9365070542E+00   -7.9155665492E+00
   -7.8947362866E+00   -7.8740153940E+00   -7.8534028926E+00   -7.8328980172E+00
   -7.8124999664E+00   -7.7922079084E+00   -7.7720209830E+00   -7.7519382894E+00
   -7.7319591392E+00   -7.7120827395E+00   -7.6923082971E+00   -7.6726349429E+00
   -7.6530619247E+00   -7.6335885422E+00   -7.6142140392E+00   -7.5949376595E+00
   -7.5757585344E+00   -7.5566760371E+00   -7.5376894606E+00   -7.5187980838E+00
   -7.5000011664E+00   -7.4812979070E+00   -7.4626877225E+00   -7.4441699253E+00
   -7.4257438281E+00   -7.4074086996E+00   -7.3891638282E+00   -7.3710086372E+00
   -7.3529424712E+00   -7.3349646748E+00   -7.3170745325E+00   -7.2992714034E+00
   -7.2815547226E+00   -7.2639238653E+00   -7.2463782066E+00   -7.2289170533E+00
   -7.2115398161E+00   -7.1942459484E+00   -7.1770348542E+00   -7.1599059377E+00
   -7.1428585334E+00   -7.1258920870E+00   -7.1090060749E+00   -7.0921999293E+00
   -7.0754730820E+00   -7.0588249003E+00   -7.0422548484E+00   -7.0257624317E+00
   -7.0093471089E+00   -6.9930083381E+00   -6.9767455248E+00   -6.9605581359E+00
   -6.9444457113E+00   -6.9284077346E+00   -6.9124436893E+00   -6.8965530236E+00
   -6.8807351934E+00   -6.8649897770E+00   -6.8493162821E+00   -6.8337142164E+00
   -6.8181830755E+00   -6.8027222911E+00   -6.7873314839E+00   -6.7720101847E+00
   -6.7567579239E+00   -6.7415742323E+00   -6.7264585564E+00   -6.7114105119E+00
   -6.6964296681E+00   -6.6815155773E+00   -6.6666677921E+00   -6.6518858157E+00
   -6.6371692094E+00   -6.6225175968E+00   -6.6079305512E+00   -6.5934076460E+00
   -6.5789484457E+00   -6.5645524471E+00   -6.5502193300E+00   -6.5359486876E+00
   -6.5217401131E+00   -6.5075931997E+00   -6.4935074821E+00   -6.4794825869E+00
   -6.4655181626E+00   -6.4516138214E+00   -6.4377691754E+00   -6.4239838292E+00
   -6.4102573202E+00   -6.3965893620E+00   -6.3829795848E+00   -6.3694276189E+00
   -6.3559330945E+00   -6.3424955983E+00   -6.3291147648E+00   -6.3157902884E+00
   -6.3025218167E+00   -6.2893089971E+00   -6.2761514770E+00   -6.2630488333E+00
   -6.2500007798E+00   -6.2370069975E+00   -6.2240671503E+00   -6.2111809021E+00
   -6.1983479106E+00   -6.1855677679E+00   -6.1728402322E+00   -6.1601649829E+00
   -6.1475416997E+00   -6.1349700620E+00   -6.1224497273E+00   -6.1099803391E+00
   -6.0975616537E+00   -6.0851933654E+00   -6.0728751687E+00   -6.0606067581E+00
   -6.0483877961E+00   -6.0362179640E+00   -6.0240970208E+00   -6.0120246751E+00
   -6.0000006357E+00   -5.9880246113E+00   -5.9760962752E+00   -5.9642153321E+00
   -5.9523815492E+00   -5.9405946489E+00   -5.9288543535E+00   -5.9171603851E+00
   -5.9055124331E+00   -5.8939102124E+00   -5.8823535037E+00   -5.8708420422E+00
   -5.8593755632E+00   -5.8479538017E+00   -5.8365764678E+00   -5.8252432745E+00
   -5.8139540206E+00   -5.8027084537E+00   -5.7915063211E+00   -5.7803473706E+00
   -5.7692313373E+00   -5.7581579211E+00   -5.7471269429E+00   -5.7361381620E+00
   -5.7251913380E+00   -5.7142862299E+00   -5.7034225972E+00   -5.6926001323E+00
   -5.6818186661E+00   -5.6710779745E+00   -5.6603778280E+00   -5.6497179972E+00
   -5.6390982526E+00   -5.6285183210E+00   -5.6179779953E+00   -5.6074770844E+00
   -5.5970153694E+00   -5.5865926317E+00   -5.5762086524E+00   -5.5658631970E+00
   -5.5555560110E+00   -5.5452869392E+00   -5.5350557733E+00   -5.5248623044E+00
   -5.5147063242E+00   -5.5045876239E+00   -5.4945059437E+00   -5.4844611169E+00
   -5.4744529612E+00   -5.4644812777E+00   -5.4545458675E+00   -5.4446465319E+00
   -5.4347830574E+00   -5.4249552097E+00   -5.4151628510E+00   -5.4054057916E+00
   -5.3956838420E+00   -5.3859968124E+00   -5.3763445133E+00   -5.3667267166E+00
   -5.3571432498E+00   -5.3475939586E+00   -5.3380786623E+00   -5.3285971799E+00
   -5.3191493309E+00   -5.3097349343E+00   -5.3003537533E+00   -5.2910056639E+00
   -5.2816905005E+00   -5.2724080906E+00   -5.2631582619E+00   -5.2539408422E+00
   -5.2447556520E+00   -5.2356024725E+00   -5.2264811936E+00   -5.2173916510E+00
   -5.2083336804E+00   -5.1993071174E+00   -5.1903117977E+00   -5.1813475419E+00
   -5.1724141575E+00   -5.1635115329E+00   -5.1546395114E+00   -5.1457979363E+00
   -5.1369866511E+00   -5.1282054990E+00   -5.1194543053E+00   -5.1107328926E+00
   -5.1020411524E+00   -5.0933789354E+00   -5.0847460921E+00   -5.0761424733E+00
   -5.0675679295E+00   -5.0590222954E+00   -5.0505053979E+00   -5.0420171362E+00
   -5.0335573677E+00   -5.0251259500E+00   -5.0167227409E+00   -5.0083475979E+00
   -5.0000003692E+00   -4.9916808762E+00
  </PP_LOCAL>
 <PP_NONLOCAL>
   <PP_BETA.1
       type="real"
       size=" 602"
       columns="4"
       index="1"
       angular_momentum="0"
       cutoff_radius_index=" 358"
       cutoff_radius="    3.5700000000E+00" >
    0.0000000000E+00    9.7314406025E-03    1.9386669580E-02    2.8889827568E-02
    3.8165758319E-02    4.7140356776E-02    5.5740912963E-02    6.3896450344E-02
    7.1538057279E-02    7.8599210287E-02    8.5016087783E-02    9.0727873088E-02
    9.5677045432E-02    9.9809657813E-02    1.0307560063E-01    1.0542884987E-01
    1.0682769910E-01    1.0723497392E-01    1.0661822851E-01    1.0494992277E-01
    1.0220758025E-01    9.8373924929E-02    9.3436997519E-02    8.7390250051E-02
    8.0232618432E-02    7.1968572355E-02    6.2608143356E-02    5.2166929079E-02
    4.0666075517E-02    2.8132235894E-02    1.4597506737E-02    9.9341517375E-05
   -1.5319558421E-02   -3.1611374697E-02   -4.8723323964E-02   -6.6597832860E-02
   -8.5172730246E-02   -1.0438146214E-01   -1.2415332576E-01   -1.4441371847E-01
   -1.6508440692E-01   -1.8608381079E-01   -2.0732730636E-01   -2.2872753666E-01
   -2.5019473939E-01   -2.7163708283E-01   -2.9296102189E-01   -3.1407165108E-01
   -3.3487307178E-01   -3.5526876368E-01   -3.7516194181E-01   -3.9445598931E-01
   -4.1305479594E-01   -4.3086311073E-01   -4.4778703390E-01   -4.6373425785E-01
   -4.7861455369E-01   -4.9234006113E-01   -5.0482571423E-01   -5.1598951670E-01
   -5.2575300965E-01   -5.3404139392E-01   -5.4078413022E-01   -5.4591499942E-01
   -5.4937245756E-01   -5.5110003948E-01   -5.5104644448E-01   -5.4916576427E-01