<UPF version="2.0.1">
  <PP_INFO>

 Se_ONCV_PBE_FR-1.1.upf

 This pseudopotential file has been produced using the code
 ONCVPSP  (Optimized Norm-Conservinng Vanderbilt PSeudopotential)
 fully-relativistic version 2.1.1, 03/26/2014 by D. R. Hamann
 The code is available through a link at URL www.mat-simresearch.com.
 Documentation with the package provides a full description of the
 input data below.

 While it is not required under the terms of the GNU GPL, it is
 suggested that you cite D. R. Hamann, Phys. Rev. B 88, 085117 (2013)
 in any publication using these pseudopotentials.

 -----

 This pseudopotential was produced with the SG15 1.0 and/or 1.1
 parameter sets, the Schlipf-Gygi norm-conserving pseudopotential
 library. For details of the construction and testing of the
 pseudopotential please refer to:

 M. Schlipf, F. Gygi, Comp. Phys. Comm. 196, 36 (2015)
 http://dx.doi.org/10.1016/j.cpc.2015.05.011

 The above authors kindly ask that you include this reference in all
 publications associated to this pseudopotential.

 Please note this fully-relativistic version does not employ the
 above self-consistent procedure at the fully-relativistic level.

 -----

 This pseudopotential was produced by Peter Scherpelz for the purpose
 of performing GW calculations with spin-orbit-coupling. Please see
 the publication:

 P. Scherpelz, M. Govoni, I. Hamada, G. Galli; J. Chem. Theory Comput. (2016)
 http://dx.doi.org/10.1021/acs.jctc.6b00114

 If you use these pseudopotentials in your work, we also kindly ask
 that you cite the above publication.

 -----

 This work is licensed under the Creative Commons Attribution-ShareAlike 
 4.0 International License. To view a copy of this license, visit 
 http://creativecommons.org/licenses/by-sa/4.0/ or send a letter to 
 Creative Commons, PO Box 1866, Mountain View, CA 94042, USA.

 The SG15 library is Copyright 2015 The Regents of the University of
 California.  Further modifications of these files are Copyright 2016
 Peter Scherpelz.

    <PP_INPUTFILE>
# ATOM AND REFERENCE CONFIGURATION
# atsym  z    nc    nv    iexc   psfile
  Se 34.00     6     2     4      upf
#
#   n    l    f        energy (Ha)
    1    0    2.00
    2    0    2.00
    2    1    6.00
    3    0    2.00
    3    1    6.00
    3    2   10.00
    4    0    2.00
    4    1    4.00
#
# PSEUDOPOTENTIAL AND OPTIMIZATION
# lmax
    2
#
#   l,   rc,     ep,   ncon, nbas, qcut
    0    2.63   -0.64    5    8    6.80
    1    2.73   -0.23    5    8    5.39
    2    3.34    0.12    5    8    4.12
#
# LOCAL POTENTIAL
# lloc, lpopt,  rc(5),   dvloc0
    4    5      1.45       0.00
#
# VANDERBILT-KLEINMAN-BYLANDER PROJECTORs
# l, nproj, debl
    0    2    0.8706
    1    2    0.4837
    2    2    1.3886
#
# MODEL CORE CHARGE
# icmod, fcfact
    0    0.00
#
# LOG DERIVATIVE ANALYSIS
# epsh1, epsh2, depsh
   -5.00    3.00    0.02
#
# OUTPUT GRID
# rlmax, drl
    6.00    0.01
#
# TEST CONFIGURATIONS
# ncnf
    0
# nvcnf
#   n    l    f
    </PP_INPUTFILE>
  </PP_INFO>
  <!--                               -->
  <!-- END OF HUMAN READABLE SECTION -->
  <!--                               -->
    <PP_HEADER
       generated="Generated using ONCVPSP code by D. R. Hamann"
       author="anonymous"
       date="150703"
       comment=""
       element="Se"
       pseudo_type="NC"
       relativistic="full"
       is_ultrasoft="F"
       is_paw="F"
       is_coulomb="F"
       has_so="T"
       has_wfc="F"
       has_gipaw="F"
       core_correction="F"
       functional="PBE"
       z_valence="    6.00"
       total_psenergy="  -9.32526447440E+00"
       rho_cutoff="   6.01000000000E+00"
       l_max="2"
       l_local="-1"
       mesh_size="   602"
       number_of_wfc="0"
       number_of_proj="10"/>
 <PP_MESH>
   <PP_R type="real"  size=" 602" columns="8">
    0.0000    0.0100    0.0200    0.0300    0.0400    0.0500    0.0600    0.0700
    0.0800    0.0900    0.1000    0.1100    0.1200    0.1300    0.1400    0.1500
    0.1600    0.1700    0.1800    0.1900    0.2000    0.2100    0.2200    0.2300
    0.2400    0.2500    0.2600    0.2700    0.2800    0.2900    0.3000    0.3100
    0.3200    0.3300    0.3400    0.3500    0.3600    0.3700    0.3800    0.3900
    0.4000    0.4100    0.4200    0.4300    0.4400    0.4500    0.4600    0.4700
    0.4800    0.4900    0.5000    0.5100    0.5200    0.5300    0.5400    0.5500
    0.5600    0.5700    0.5800    0.5900    0.6000    0.6100    0.6200    0.6300
    0.6400    0.6500    0.6600    0.6700    0.6800    0.6900    0.7000    0.7100
    0.7200    0.7300    0.7400    0.7500    0.7600    0.7700    0.7800    0.7900
    0.8000    0.8100    0.8200    0.8300    0.8400    0.8500    0.8600    0.8700
    0.8800    0.8900    0.9000    0.9100    0.9200    0.9300    0.9400    0.9500
    0.9600    0.9700    0.9800    0.9900    1.0000    1.0100    1.0200    1.0300
    1.0400    1.0500    1.0600    1.0700    1.0800    1.0900    1.1000    1.1100
    1.1200    1.1300    1.1400    1.1500    1.1600    1.1700    1.1800    1.1900
    1.2000    1.2100    1.2200    1.2300    1.2400    1.2500    1.2600    1.2700
    1.2800    1.2900    1.3000    1.3100    1.3200    1.3300    1.3400    1.3500
    1.3600    1.3700    1.3800    1.3900    1.4000    1.4100    1.4200    1.4300
    1.4400    1.4500    1.4600    1.4700    1.4800    1.4900    1.5000    1.5100
    1.5200    1.5300    1.5400    1.5500    1.5600    1.5700    1.5800    1.5900
    1.6000    1.6100    1.6200    1.6300    1.6400    1.6500    1.6600    1.6700
    1.6800    1.6900    1.7000    1.7100    1.7200    1.7300    1.7400    1.7500
    1.7600    1.7700    1.7800    1.7900    1.8000    1.8100    1.8200    1.8300
    1.8400    1.8500    1.8600    1.8700    1.8800    1.8900    1.9000    1.9100
    1.9200    1.9300    1.9400    1.9500    1.9600    1.9700    1.9800    1.9900
    2.0000    2.0100    2.0200    2.0300    2.0400    2.0500    2.0600    2.0700
    2.0800    2.0900    2.1000    2.1100    2.1200    2.1300    2.1400    2.1500
    2.1600    2.1700    2.1800    2.1900    2.2000    2.2100    2.2200    2.2300
    2.2400    2.2500    2.2600    2.2700    2.2800    2.2900    2.3000    2.3100
    2.3200    2.3300    2.3400    2.3500    2.3600    2.3700    2.3800    2.3900
    2.4000    2.4100    2.4200    2.4300    2.4400    2.4500    2.4600    2.4700
    2.4800    2.4900    2.5000    2.5100    2.5200    2.5300    2.5400    2.5500
    2.5600    2.5700    2.5800    2.5900    2.6000    2.6100    2.6200    2.6300
    2.6400    2.6500    2.6600    2.6700    2.6800    2.6900    2.7000    2.7100
    2.7200    2.7300    2.7400    2.7500    2.7600    2.7700    2.7800    2.7900
    2.8000    2.8100    2.8200    2.8300    2.8400    2.8500    2.8600    2.8700
    2.8800    2.8900    2.9000    2.9100    2.9200    2.9300    2.9400    2.9500
    2.9600    2.9700    2.9800    2.9900    3.0000    3.0100    3.0200    3.0300
    3.0400    3.0500    3.0600    3.0700    3.0800    3.0900    3.1000    3.1100
    3.1200    3.1300    3.1400    3.1500    3.1600    3.1700    3.1800    3.1900
    3.2000    3.2100    3.2200    3.2300    3.2400    3.2500    3.2600    3.2700
    3.2800    3.2900    3.3000    3.3100    3.3200    3.3300    3.3400    3.3500
    3.3600    3.3700    3.3800    3.3900    3.4000    3.4100    3.4200    3.4300
    3.4400    3.4500    3.4600    3.4700    3.4800    3.4900    3.5000    3.5100
    3.5200    3.5300    3.5400    3.5500    3.5600    3.5700    3.5800    3.5900
    3.6000    3.6100    3.6200    3.6300    3.6400    3.6500    3.6600    3.6700
    3.6800    3.6900    3.7000    3.7100    3.7200    3.7300    3.7400    3.7500
    3.7600    3.7700    3.7800    3.7900    3.8000    3.8100    3.8200    3.8300
    3.8400    3.8500    3.8600    3.8700    3.8800    3.8900    3.9000    3.9100
    3.9200    3.9300    3.9400    3.9500    3.9600    3.9700    3.9800    3.9900
    4.0000    4.0100    4.0200    4.0300    4.0400    4.0500    4.0600    4.0700
    4.0800    4.0900    4.1000    4.1100    4.1200    4.1300    4.1400    4.1500
    4.1600    4.1700    4.1800    4.1900    4.2000    4.2100    4.2200    4.2300
    4.2400    4.2500    4.2600    4.2700    4.2800    4.2900    4.3000    4.3100
    4.3200    4.3300    4.3400    4.3500    4.3600    4.3700    4.3800    4.3900
    4.4000    4.4100    4.4200    4.4300    4.4400    4.4500    4.4600    4.4700
    4.4800    4.4900    4.5000    4.5100    4.5200    4.5300    4.5400    4.5500
    4.5600    4.5700    4.5800    4.5900    4.6000    4.6100    4.6200    4.6300
    4.6400    4.6500    4.6600    4.6700    4.6800    4.6900    4.7000    4.7100
    4.7200    4.7300    4.7400    4.7500    4.7600    4.7700    4.7800    4.7900
    4.8000    4.8100    4.8200    4.8300    4.8400    4.8500    4.8600    4.8700
    4.8800    4.8900    4.9000    4.9100    4.9200    4.9300    4.9400    4.9500
    4.9600    4.9700    4.9800    4.9900    5.0000    5.0100    5.0200    5.0300
    5.0400    5.0500    5.0600    5.0700    5.0800    5.0900    5.1000    5.1100
    5.1200    5.1300    5.1400    5.1500    5.1600    5.1700    5.1800    5.1900
    5.2000    5.2100    5.2200    5.2300    5.2400    5.2500    5.2600    5.2700
    5.2800    5.2900    5.3000    5.3100    5.3200    5.3300    5.3400    5.3500
    5.3600    5.3700    5.3800    5.3900    5.4000    5.4100    5.4200    5.4300
    5.4400    5.4500    5.4600    5.4700    5.4800    5.4900    5.5000    5.5100
    5.5200    5.5300    5.5400    5.5500    5.5600    5.5700    5.5800    5.5900
    5.6000    5.6100    5.6200    5.6300    5.6400    5.6500    5.6600    5.6700
    5.6800    5.6900    5.7000    5.7100    5.7200    5.7300    5.7400    5.7500
    5.7600    5.7700    5.7800    5.7900    5.8000    5.8100    5.8200    5.8300
    5.8400    5.8500    5.8600    5.8700    5.8800    5.8900    5.9000    5.9100
    5.9200    5.9300    5.9400    5.9500    5.9600    5.9700    5.9800    5.9900
    6.0000    6.0100
   </PP_R>
   <PP_RAB type="real"  size=" 602" columns="8">
    0.0100    0.0100    0.0100    0.0100    0.0100    0.0100    0.0100    0.0100
    0.0100    0.0100    0.0100    0.0100    0.0100    0.0100    0.0100    0.0100
    0.0100    0.0100    0.0100    0.0100    0.0100    0.0100    0.0100    0.0100
    0.0100    0.0100    0.0100    0.0100    0.0100    0.0100    0.0100    0.0100
    0.0100    0.0100    0.0100    0.0100    0.0100    0.0100    0.0100    0.0100
    0.0100    0.0100    0.0100    0.0100    0.0100    0.0100    0.0100    0.0100
    0.0100    0.0100    0.0100    0.0100    0.0100    0.0100    0.0100    0.0100
    0.0100    0.0100    0.0100    0.0100    0.0100    0.0100    0.0100    0.0100
    0.0100    0.0100    0.0100    0.0100    0.0100    0.0100    0.0100    0.0100
    0.0100    0.0100    0.0100    0.0100    0.0100    0.0100    0.0100    0.0100
    0.0100    0.0100    0.0100    0.0100    0.0100    0.0100    0.0100    0.0100
    0.0100    0.0100    0.0100    0.0100    0.0100    0.0100    0.0100    0.0100
    0.0100    0.0100    0.0100    0.0100    0.0100    0.0100    0.0100    0.0100
    0.0100    0.0100    0.0100    0.0100    0.0100    0.0100    0.0100    0.0100
    0.0100    0.0100    0.0100    0.0100    0.0100    0.0100    0.0100    0.0100
    0.0100    0.0100    0.0100    0.0100    0.0100    0.0100    0.0100    0.0100
    0.0100    0.0100    0.0100    0.0100    0.0100    0.0100    0.0100    0.0100
    0.0100    0.0100    0.0100    0.0100    0.0100    0.0100    0.0100    0.0100
    0.0100    0.0100    0.0100    0.0100    0.0100    0.0100    0.0100    0.0100
    0.0100    0.0100    0.0100    0.0100    0.0100    0.0100    0.0100    0.0100
    0.0100    0.0100    0.0100    0.0100    0.0100    0.0100    0.0100    0.0100
    0.0100    0.0100    0.0100    0.0100    0.0100    0.0100    0.0100    0.0100
    0.0100    0.0100    0.0100    0.0100    0.0100    0.0100    0.0100    0.0100
    0.0100    0.0100    0.0100    0.0100    0.0100    0.0100    0.0100    0.0100
    0.0100    0.0100    0.0100    0.0100    0.0100    0.0100    0.0100    0.0100
    0.0100    0.0100    0.0100    0.0100    0.0100    0.0100    0.0100    0.0100
    0.0100    0.0100    0.0100    0.0100    0.0100    0.0100    0.0100    0.0100
    0.0100    0.0100    0.0100    0.0100    0.0100    0.0100    0.0100    0.0100
    0.0100    0.0100    0.0100    0.0100    0.0100    0.0100    0.0100    0.0100
    0.0100    0.0100    0.0100    0.0100    0.0100    0.0100    0.0100    0.0100
    0.0100    0.0100    0.0100    0.0100    0.0100    0.0100    0.0100    0.0100
    0.0100    0.0100    0.0100    0.0100    0.0100    0.0100    0.0100    0.0100
    0.0100    0.0100    0.0100    0.0100    0.0100    0.0100    0.0100    0.0100
    0.0100    0.0100    0.0100    0.0100    0.0100    0.0100    0.0100    0.0100
    0.0100    0.0100    0.0100    0.0100    0.0100    0.0100    0.0100    0.0100
    0.0100    0.0100    0.0100    0.0100    0.0100    0.0100    0.0100    0.0100
    0.0100    0.0100    0.0100    0.0100    0.0100    0.0100    0.0100    0.0100
    0.0100    0.0100    0.0100    0.0100    0.0100    0.0100    0.0100    0.0100
    0.0100    0.0100    0.0100    0.0100    0.0100    0.0100    0.0100    0.0100
    0.0100    0.0100    0.0100    0.0100    0.0100    0.0100    0.0100    0.0100
    0.0100    0.0100    0.0100    0.0100    0.0100    0.0100    0.0100    0.0100
    0.0100    0.0100    0.0100    0.0100    0.0100    0.0100    0.0100    0.0100
    0.0100    0.0100    0.0100    0.0100    0.0100    0.0100    0.0100    0.0100
    0.0100    0.0100    0.0100    0.0100    0.0100    0.0100    0.0100    0.0100
    0.0100    0.0100    0.0100    0.0100    0.0100    0.0100    0.0100    0.0100
    0.0100    0.0100    0.0100    0.0100    0.0100    0.0100    0.0100    0.0100
    0.0100    0.0100    0.0100    0.0100    0.0100    0.0100    0.0100    0.0100
    0.0100    0.0100    0.0100    0.0100    0.0100    0.0100    0.0100    0.0100
    0.0100    0.0100    0.0100    0.0100    0.0100    0.0100    0.0100    0.0100
    0.0100    0.0100    0.0100    0.0100    0.0100    0.0100    0.0100    0.0100
    0.0100    0.0100    0.0100    0.0100    0.0100    0.0100    0.0100    0.0100
    0.0100    0.0100    0.0100    0.0100    0.0100    0.0100    0.0100    0.0100
    0.0100    0.0100    0.0100    0.0100    0.0100    0.0100    0.0100    0.0100
    0.0100    0.0100    0.0100    0.0100    0.0100    0.0100    0.0100    0.0100
    0.0100    0.0100    0.0100    0.0100    0.0100    0.0100    0.0100    0.0100
    0.0100    0.0100    0.0100    0.0100    0.0100    0.0100    0.0100    0.0100
    0.0100    0.0100    0.0100    0.0100    0.0100    0.0100    0.0100    0.0100
    0.0100    0.0100    0.0100    0.0100    0.0100    0.0100    0.0100    0.0100
    0.0100    0.0100    0.0100    0.0100    0.0100    0.0100    0.0100    0.0100
    0.0100    0.0100    0.0100    0.0100    0.0100    0.0100    0.0100    0.0100
    0.0100    0.0100    0.0100    0.0100    0.0100    0.0100    0.0100    0.0100
    0.0100    0.0100    0.0100    0.0100    0.0100    0.0100    0.0100    0.0100
    0.0100    0.0100    0.0100    0.0100    0.0100    0.0100    0.0100    0.0100
    0.0100    0.0100    0.0100    0.0100    0.0100    0.0100    0.0100    0.0100
    0.0100    0.0100    0.0100    0.0100    0.0100    0.0100    0.0100    0.0100
    0.0100    0.0100    0.0100    0.0100    0.0100    0.0100    0.0100    0.0100
    0.0100    0.0100    0.0100    0.0100    0.0100    0.0100    0.0100    0.0100
    0.0100    0.0100    0.0100    0.0100    0.0100    0.0100    0.0100    0.0100
    0.0100    0.0100    0.0100    0.0100    0.0100    0.0100    0.0100    0.0100
    0.0100    0.0100    0.0100    0.0100    0.0100    0.0100    0.0100    0.0100
    0.0100    0.0100    0.0100    0.0100    0.0100    0.0100    0.0100    0.0100
    0.0100    0.0100    0.0100    0.0100    0.0100    0.0100    0.0100    0.0100
    0.0100    0.0100    0.0100    0.0100    0.0100    0.0100    0.0100    0.0100
    0.0100    0.0100    0.0100    0.0100    0.0100    0.0100    0.0100    0.0100
    0.0100    0.0100    0.0100    0.0100    0.0100    0.0100    0.0100    0.0100
    0.0100    0.0100
   </PP_RAB>
 </PP_MESH>
  <PP_LOCAL type="real"  size=" 602" columns="4">
   -2.1391158883E+01   -2.1386562393E+01   -2.1371247427E+01   -2.1348021417E+01
   -2.1319691798E+01   -2.1287808094E+01   -2.1253273017E+01   -2.1216599493E+01
   -2.1178086686E+01   -2.1137920886E+01   -2.1096229895E+01   -2.1053111853E+01
   -2.1008650437E+01   -2.0962922775E+01   -2.0916003404E+01   -2.0867966051E+01
   -2.0818884181E+01   -2.0768830840E+01   -2.0717878082E+01   -2.0666096147E+01
   -2.0613552460E+01   -2.0560310528E+01   -2.0506428735E+01   -2.0451959071E+01
   -2.0396945798E+01   -2.0341424086E+01   -2.0285418604E+01   -2.0228942142E+01
   -2.0171994234E+01   -2.0114559875E+01   -2.0056608348E+01   -1.9998092201E+01
   -1.9938946447E+01   -1.9879088045E+01   -1.9818415705E+01   -1.9756809998E+01
   -1.9694134017E+01   -1.9630234365E+01   -1.9564942673E+01   -1.9498077647E+01
   -1.9429447552E+01   -1.9358853179E+01   -1.9286091247E+01   -1.9210958193E+01
   -1.9133254246E+01   -1.9052787683E+01   -1.8969379268E+01   -1.8882866610E+01
   -1.8793108401E+01   -1.8699988372E+01   -1.8603418629E+01   -1.8503343232E+01
   -1.8399740136E+01   -1.8292622420E+01   -1.8182040295E+01   -1.8068079490E+01
   -1.7950861317E+01   -1.7830539966E+01   -1.7707300135E+01   -1.7581352864E+01
   -1.7452931876E+01   -1.7322287842E+01   -1.7189684200E+01   -1.7055391103E+01
   -1.6919680601E+01   -1.6782821499E+01   -1.6645074999E+01   -1.6506691122E+01
   -1.6367904688E+01   -1.6228933607E+01   -1.6089977077E+01   -1.5951214835E+01
   -1.5812806419E+01   -1.5674891744E+01   -1.5537592134E+01   -1.5401011388E+01
   -1.5265237203E+01   -1.5130342757E+01   -1.4996388334E+01   -1.4863423000E+01
   -1.4731485886E+01   -1.4600607840E+01   -1.4470812584E+01   -1.4342117779E+01
   -1.4214535948E+01   -1.4088075232E+01   -1.3962740016E+01   -1.3838531425E+01
   -1.3715447730E+01   -1.3593484667E+01   -1.3472635705E+01   -1.3352892283E+01
   -1.3234243946E+01   -1.3116678610E+01   -1.3000182737E+01   -1.2884741542E+01
   -1.2770339224E+01   -1.2656959221E+01   -1.2544584480E+01   -1.2433197752E+01
   -1.2322781865E+01   -1.2213320129E+01   -1.2104796630E+01   -1.1997196563E+01
   -1.1890506540E+01   -1.1784714800E+01   -1.1679811574E+01   -1.1575789499E+01
   -1.1472643531E+01   -1.1370371163E+01   -1.1268972260E+01   -1.1168449820E+01
   -1.1068809427E+01   -1.0970059161E+01   -1.0872209315E+01   -1.0775272956E+01
   -1.0679265155E+01   -1.0584202675E+01   -1.0490103716E+01   -1.0396988219E+01
   -1.0304876749E+01   -1.0213790500E+01   -1.0123751133E+01   -1.0034780119E+01
   -9.9468986739E+00   -9.8601274660E+00   -9.7744858805E+00   -9.6899924322E+00
   -9.6066642339E+00   -9.5245161012E+00   -9.4435617069E+00   -9.3638123552E+00
   -9.2852765136E+00   -9.2079615446E+00   -9.1318710828E+00   -9.0570062434E+00
   -8.9833670106E+00   -8.9109480843E+00   -8.8397432293E+00   -8.7697429374E+00
   -8.7009335861E+00   -8.6333011820E+00   -8.5668256574E+00   -8.5014861264E+00
   -8.4372580958E+00   -8.3741132198E+00   -8.3120216995E+00   -8.2509528776E+00
   -8.1908765777E+00   -8.1317657595E+00   -8.0735941656E+00   -8.0163371124E+00
   -7.9599716758E+00   -7.9044750708E+00   -7.8498268699E+00   -7.7960060292E+00
   -7.7429938273E+00   -7.6907709952E+00   -7.6393199048E+00   -7.5886228220E+00
   -7.5386630689E+00   -7.4894241683E+00   -7.4408902942E+00   -7.3930460245E+00
   -7.3458763168E+00   -7.2993666583E+00   -7.2535027418E+00   -7.2082708559E+00
   -7.1636573954E+00   -7.1196493659E+00   -7.0762338409E+00   -7.0333984733E+00
   -6.9911309994E+00   -6.9494196575E+00   -6.9082528351E+00   -6.8676192996E+00
   -6.8275080800E+00   -6.7879084196E+00   -6.7488099803E+00   -6.7102024318E+00
   -6.6720760579E+00   -6.6344209109E+00   -6.5972278814E+00   -6.5604873677E+00
   -6.5241907985E+00   -6.4883290326E+00   -6.4528938397E+00   -6.4178766480E+00
   -6.3832694522E+00   -6.3490642704E+00   -6.3152532816E+00   -6.2818290833E+00
   -6.2487840125E+00   -6.2161111807E+00   -6.1838031996E+00   -6.1518534725E+00
   -6.1202551114E+00   -6.0890015907E+00   -6.0580865856E+00   -6.0275036146E+00
   -5.9972468478E+00   -5.9673100018E+00   -5.9376874784E+00   -5.9083734744E+00
   -5.8793623689E+00   -5.8506489159E+00   -5.8222274592E+00   -5.7940931459E+00
   -5.7662407166E+00   -5.7386652512E+00   -5.7113620543E+00   -5.6843261077E+00
   -5.6575531253E+00   -5.6310384301E+00   -5.6047776626E+00   -5.5787667046E+00
   -5.5530010583E+00   -5.5274769799E+00   -5.5021903744E+00   -5.4771373156E+00
   -5.4523142429E+00   -5.4277172230E+00   -5.4033428818E+00   -5.3791877613E+00
   -5.3552482525E+00   -5.3315213402E+00   -5.3080036630E+00   -5.2846920903E+00
   -5.2615837636E+00   -5.2386754898E+00   -5.2159645735E+00   -5.1934482894E+00
   -5.1711236526E+00   -5.1489883172E+00   -5.1270396489E+00   -5.1052750227E+00
   -5.0836922367E+00   -5.0622888111E+00   -5.0410624351E+00   -5.0200110362E+00
   -4.9991322900E+00   -4.9784241468E+00   -4.9578846530E+00   -4.9375116365E+00
   -4.9173032543E+00   -4.8972576609E+00   -4.8773728305E+00   -4.8576470727E+00
   -4.8380786400E+00   -4.8186656411E+00   -4.7994064901E+00   -4.7802995240E+00
   -4.7613429715E+00   -4.7425353091E+00   -4.7238749435E+00   -4.7053602045E+00
   -4.6869895988E+00   -4.6687615857E+00   -4.6506745735E+00   -4.6327270789E+00
   -4.6149175959E+00   -4.5972445770E+00   -4.5797065539E+00   -4.5623020521E+00
   -4.5450295418E+00   -4.5278875864E+00   -4.5108747700E+00   -4.4939896338E+00
   -4.4772307471E+00   -4.4605967094E+00   -4.4440860914E+00   -4.4276974664E+00
   -4.4114294609E+00   -4.3952806671E+00   -4.3792495451E+00   -4.3633349573E+00
   -4.3475356090E+00   -4.3318500718E+00   -4.3162772225E+00   -4.3008159059E+00
   -4.2854648969E+00   -4.2702230131E+00   -4.2550891310E+00   -4.2400620787E+00
   -4.2251406191E+00   -4.2103237552E+00   -4.1956103915E+00   -4.1809993653E+00
   -4.1664896566E+00   -4.1520802477E+00   -4.1377700662E+00   -4.1235580405E+00
   -4.1094432420E+00   -4.0954246747E+00   -4.0815012699E+00   -4.0676721234E+00
   -4.0539363045E+00   -4.0402928375E+00   -4.0267407489E+00   -4.0132791975E+00
   -3.9999072788E+00   -3.9866240250E+00   -3.9734286006E+00   -3.9603201682E+00
   -3.9472978547E+00   -3.9343607407E+00   -3.9215080773E+00   -3.9087390428E+00
   -3.8960527751E+00   -3.8834484667E+00   -3.8709253785E+00   -3.8584827274E+00
   -3.8461196668E+00   -3.8338354874E+00   -3.8216294605E+00   -3.8095008353E+00
   -3.7974487982E+00   -3.7854727103E+00   -3.7735718599E+00   -3.7617455136E+00
   -3.7499929342E+00   -3.7383134993E+00   -3.7267065305E+00   -3.7151713148E+00
   -3.7037071801E+00   -3.6923135217E+00   -3.6809896930E+00   -3.6697350041E+00
   -3.6585488367E+00   -3.6474306058E+00   -3.6363796951E+00   -3.6253954402E+00
   -3.6144772657E+00   -3.6036246090E+00   -3.5928368822E+00   -3.5821134484E+00
   -3.5714537657E+00   -3.5608572956E+00   -3.5503234774E+00   -3.5398517037E+00
   -3.5294414565E+00   -3.5190922235E+00   -3.5088034705E+00   -3.4985746207E+00
   -3.4884051716E+00   -3.4782946392E+00   -3.4682425141E+00   -3.4582482524E+00
   -3.4483113587E+00   -3.4384313792E+00   -3.4286078280E+00   -3.4188401960E+00
   -3.4091279872E+00   -3.3994707795E+00   -3.3898681096E+00   -3.3803195046E+00
   -3.3708244615E+00   -3.3613825907E+00   -3.3519934505E+00   -3.3426565990E+00
   -3.3333715409E+00   -3.3241378991E+00   -3.3149552591E+00   -3.3058231997E+00
   -3.2967412644E+00   -3.2877090528E+00   -3.2787261884E+00   -3.2697922695E+00
   -3.2609068809E+00   -3.2520695932E+00   -3.2432800681E+00   -3.2345379224E+00
   -3.2258427729E+00   -3.2171941908E+00   -3.2085918417E+00   -3.2000353712E+00
   -3.1915244139E+00   -3.1830585850E+00   -3.1746375074E+00   -3.1662608694E+00
   -3.1579283223E+00   -3.1496395178E+00   -3.1413940630E+00   -3.1331916569E+00
   -3.1250319771E+00   -3.1169146913E+00   -3.1088394536E+00   -3.1008059090E+00
   -3.0928137804E+00   -3.0848627508E+00   -3.0769525033E+00   -3.0690826885E+00
   -3.0612530107E+00   -3.0534631878E+00   -3.0457129173E+00   -3.0380018972E+00
   -3.0303297785E+00   -3.0226963150E+00   -3.0151012220E+00   -3.0075442112E+00
   -3.0000249845E+00   -2.9925432263E+00   -2.9850987013E+00   -2.9776911347E+00
   -2.9703202514E+00   -2.9629857573E+00   -2.9556873723E+00   -2.9484248637E+00
   -2.9411979693E+00   -2.9340064271E+00   -2.9268499491E+00   -2.9197282833E+00
   -2.9126412018E+00   -2.9055884546E+00   -2.8985697918E+00   -2.8915849340E+00
   -2.8846336504E+00   -2.8777157198E+00   -2.8708309040E+00   -2.8639789645E+00
   -2.8571596333E+00   -2.8503726930E+00   -2.8436179320E+00   -2.8368951232E+00
   -2.8302040392E+00   -2.8235444249E+00   -2.8169160704E+00   -2.8103187756E+00
   -2.8037523240E+00   -2.7972164988E+00   -2.7907110600E+00   -2.7842357988E+00
   -2.7777905289E+00   -2.7713750437E+00   -2.7649891366E+00   -2.7586325847E+00
   -2.7523051745E+00   -2.7460067353E+00   -2.7397370702E+00   -2.7334959821E+00
   -2.7272832670E+00   -2.7210987018E+00   -2.7149421328E+00   -2.7088133722E+00
   -2.7027122320E+00   -2.6966385243E+00   -2.6905920260E+00   -2.6845725872E+00
   -2.6785800335E+00   -2.6726141859E+00   -2.6666748651E+00   -2.6607618705E+00
   -2.6548750306E+00   -2.6490141927E+00   -2.6431791861E+00   -2.6373698400E+00
   -2.6315859782E+00   -2.6258274032E+00   -2.6200939852E+00   -2.6143855611E+00
   -2.6087019682E+00   -2.6030430437E+00   -2.5974085994E+00   -2.5917984899E+00
   -2.5862125727E+00   -2.5806506923E+00   -2.5751126936E+00   -2.5695984165E+00
   -2.5641076795E+00   -2.5586403664E+00   -2.5531963292E+00   -2.5477754197E+00
   -2.5423774899E+00   -2.5370023727E+00   -2.5316499255E+00   -2.5263200244E+00
   -2.5210125280E+00   -2.5157272954E+00   -2.5104641853E+00   -2.5052230267E+00
   -2.5000037088E+00   -2.4948061021E+00   -2.4896300720E+00   -2.4844754840E+00
   -2.4793421992E+00   -2.4742300582E+00   -2.4691389625E+00   -2.4640687836E+00
   -2.4590193935E+00   -2.4539906637E+00   -2.4489824553E+00   -2.4439946295E+00
   -2.4390270869E+00   -2.4340797052E+00   -2.4291523621E+00   -2.4242449352E+00
   -2.4193572878E+00   -2.4144892959E+00   -2.4096408614E+00   -2.4048118676E+00
   -2.4000021981E+00   -2.3952117360E+00   -2.3904403491E+00   -2.3856879227E+00
   -2.3809543619E+00   -2.3762395557E+00   -2.3715433928E+00   -2.3668657621E+00
   -2.3622065374E+00   -2.3575656083E+00   -2.3529428854E+00   -2.3483382626E+00
   -2.3437516340E+00   -2.3391828935E+00   -2.3346319234E+00   -2.3300986124E+00
   -2.3255828783E+00   -2.3210846201E+00   -2.3166037366E+00   -2.3121401268E+00
   -2.3076936832E+00   -2.3032642889E+00   -2.2988518709E+00   -2.2944563327E+00
   -2.2900775781E+00   -2.2857155106E+00   -2.2813700341E+00   -2.2770410237E+00
   -2.2727284153E+00   -2.2684321175E+00   -2.2641520385E+00   -2.2598880864E+00
   -2.2556401694E+00   -2.2514081766E+00   -2.2471920284E+00   -2.2429916468E+00
   -2.2388069442E+00   -2.2346378330E+00   -2.2304842257E+00   -2.2263460268E+00
   -2.2222231378E+00   -2.2181154952E+00   -2.2140230153E+00   -2.2099456147E+00
   -2.2058832100E+00   -2.2018357177E+00   -2.1978030322E+00   -2.1937850901E+00
   -2.1897818169E+00   -2.1857931330E+00   -2.1818189588E+00   -2.1778592147E+00
   -2.1739138137E+00   -2.1699826655E+00   -2.1660657132E+00   -2.1621628809E+00
   -2.1582740929E+00   -2.1543992732E+00   -2.1505383459E+00   -2.1466912182E+00
   -2.1428578244E+00   -2.1390381011E+00   -2.1352319760E+00   -2.1314393767E+00
   -2.1276602310E+00   -2.1238944664E+00   -2.1201419867E+00   -2.1164027454E+00
   -2.1126766748E+00   -2.1089637058E+00   -2.1052637694E+00   -2.1015767968E+00
   -2.0979027146E+00   -2.0942414383E+00   -2.0905929225E+00   -2.0869571014E+00
   -2.0833339093E+00   -2.0797232803E+00   -2.0761251488E+00   -2.0725394414E+00
   -2.0689660841E+00   -2.0654050310E+00   -2.0618562193E+00   -2.0583195863E+00
   -2.0547950693E+00   -2.0512826056E+00   -2.0477821238E+00   -2.0442935560E+00
   -2.0408168574E+00   -2.0373519682E+00   -2.0338988286E+00   -2.0304573788E+00
   -2.0270275591E+00   -2.0236093018E+00   -2.0202025407E+00   -2.0168072340E+00
   -2.0134233247E+00   -2.0100507559E+00   -2.0066894704E+00   -2.0033394115E+00
   -2.0000005168E+00   -1.9966727179E+00
  </PP_LOCAL>
 <PP_NONLOCAL>
   <PP_BETA.1
       type="real"
       size=" 602"
       columns="4"
       index="1"
       angular_momentum="0"
       cutoff_radius_index=" 338"
       cutoff_radius="    3.3700000000E+00" >
    0.0000000000E+00    1.6613654003E-02    3.3218037694E-02    4.9803774926E-02
    6.6361278619E-02    8.2880647096E-02    9.9351562597E-02    1.1576319266E-01
    1.3210409504E-01    1.4836212691E-01    1.6452435892E-01    1.8057699472E-01
    1.9650529667E-01    2.1229351823E-01    2.2792484349E-01    2.4338133446E-01
    2.5864388657E-01    2.7369219271E-01    2.8850471626E-01    3.0305867343E-01
    3.1733002512E-01    3.3129347873E-01    3.4492249980E-01    3.5818933390E-01
    3.7106503870E-01    3.8351952622E-01    3.9552161541E-01    4.0703909467E-01
    4.1803879451E-01    4.2848667005E-01    4.3834789282E-01    4.4758695208E-01
    4.5616776531E-01    4.6405379639E-01    4.7120818210E-01    4.7759386819E-01
    4.8317374833E-01    4.8791081367E-01    4.9176830720E-01    4.9470988092E-01
    4.9669976006E-01    4.9770291017E-01    4.9768520957E-01    4.9661361954E-01
    4.9445635936E-01    4.9118307892E-01    4.8676503862E-01    4.8117527917E-01
    4.7438879445E-01    4.6638270016E-01    4.5713638937E-01    4.4663172019E-01
    4.3485314973E-01    4.2178786875E-01    4.0742599855E-01    3.9176066045E-01
    3.7478815290E-01    3.5650803570E-01    3.3692326164E-01    3.1604024425E-01
    2.9386898929E-01    2.7042308854E-01    2.4571988793E-01    2.1978043986E-01
    1.9262956900E-01    1.6429592829E-01    1.3481195164E-01    1.0421384724E-01