<UPF version="2.0.1">
  <PP_INFO>

 Sr_ONCV_PBE_FR-1.0.upf

 This pseudopotential file has been produced using the code
 ONCVPSP  (Optimized Norm-Conservinng Vanderbilt PSeudopotential)
 fully-relativistic version 2.1.1, 03/26/2014 by D. R. Hamann
 The code is available through a link at URL www.mat-simresearch.com.
 Documentation with the package provides a full description of the
 input data below.

 While it is not required under the terms of the GNU GPL, it is
 suggested that you cite D. R. Hamann, Phys. Rev. B 88, 085117 (2013)
 in any publication using these pseudopotentials.

 -----

 This pseudopotential was produced with the SG15 1.0 and/or 1.1
 parameter sets, the Schlipf-Gygi norm-conserving pseudopotential
 library. For details of the construction and testing of the
 pseudopotential please refer to:

 M. Schlipf, F. Gygi, Comp. Phys. Comm. 196, 36 (2015)
 http://dx.doi.org/10.1016/j.cpc.2015.05.011

 The above authors kindly ask that you include this reference in all
 publications associated to this pseudopotential.

 Please note this fully-relativistic version does not employ the
 above self-consistent procedure at the fully-relativistic level.

 -----

 This pseudopotential was produced by Peter Scherpelz for the purpose
 of performing GW calculations with spin-orbit-coupling. Please see
 the publication:

 P. Scherpelz, M. Govoni, I. Hamada, G. Galli; J. Chem. Theory Comput. (2016)
 http://dx.doi.org/10.1021/acs.jctc.6b00114

 If you use these pseudopotentials in your work, we also kindly ask
 that you cite the above publication.

 -----

 This work is licensed under the Creative Commons Attribution-ShareAlike 
 4.0 International License. To view a copy of this license, visit 
 http://creativecommons.org/licenses/by-sa/4.0/ or send a letter to 
 Creative Commons, PO Box 1866, Mountain View, CA 94042, USA.

 The SG15 library is Copyright 2015 The Regents of the University of
 California.  Further modifications of these files are Copyright 2016
 Peter Scherpelz.

    <PP_INPUTFILE>
# ATOM AND REFERENCE CONFIGURATION
# atsym  z    nc    nv    iexc   psfile
  Sr 38.00     6     3     4      upf
#
#   n    l    f        energy (Ha)
    1    0    2.00
    2    0    2.00
    2    1    6.00
    3    0    2.00
    3    1    6.00
    3    2   10.00
    4    0    2.00
    4    1    6.00
    5    0    2.00
#
# PSEUDOPOTENTIAL AND OPTIMIZATION
# lmax
    2
#
#   l,   rc,     ep,   ncon, nbas, qcut
    0    2.82   -1.50    5    8    5.13
    1    2.69   -0.82    5    8    6.02
    2    2.38    0.14    5    8    6.41
#
# LOCAL POTENTIAL
# lloc, lpopt,  rc(5),   dvloc0
    4    5      1.99       0.00
#
# VANDERBILT-KLEINMAN-BYLANDER PROJECTORs
# l, nproj, debl
    0    2    1.3729
    1    2    1.6590
    2    2    1.1336
#
# MODEL CORE CHARGE
# icmod, fcfact
    0    0.00
#
# LOG DERIVATIVE ANALYSIS
# epsh1, epsh2, depsh
   -5.00    3.00    0.02
#
# OUTPUT GRID
# rlmax, drl
    6.00    0.01
#
# TEST CONFIGURATIONS
# ncnf
    0
# nvcnf
#   n    l    f
    </PP_INPUTFILE>
  </PP_INFO>
  <!--                               -->
  <!-- END OF HUMAN READABLE SECTION -->
  <!--                               -->
    <PP_HEADER
       generated="Generated using ONCVPSP code by D. R. Hamann"
       author="anonymous"
       date="150703"
       comment=""
       element="Sr"
       pseudo_type="NC"
       relativistic="full"
       is_ultrasoft="F"
       is_paw="F"
       is_coulomb="F"
       has_so="T"
       has_wfc="F"
       has_gipaw="F"
       core_correction="F"
       functional="PBE"
       z_valence="   10.00"
       total_psenergy="  -3.10754495741E+01"
       rho_cutoff="   6.01000000000E+00"
       l_max="2"
       l_local="-1"
       mesh_size="   602"
       number_of_wfc="0"
       number_of_proj="10"/>
 <PP_MESH>
   <PP_R type="real"  size=" 602" columns="8">
    0.0000    0.0100    0.0200    0.0300    0.0400    0.0500    0.0600    0.0700
    0.0800    0.0900    0.1000    0.1100    0.1200    0.1300    0.1400    0.1500
    0.1600    0.1700    0.1800    0.1900    0.2000    0.2100    0.2200    0.2300
    0.2400    0.2500    0.2600    0.2700    0.2800    0.2900    0.3000    0.3100
    0.3200    0.3300    0.3400    0.3500    0.3600    0.3700    0.3800    0.3900
    0.4000    0.4100    0.4200    0.4300    0.4400    0.4500    0.4600    0.4700
    0.4800    0.4900    0.5000    0.5100    0.5200    0.5300    0.5400    0.5500
    0.5600    0.5700    0.5800    0.5900    0.6000    0.6100    0.6200    0.6300
    0.6400    0.6500    0.6600    0.6700    0.6800    0.6900    0.7000    0.7100
    0.7200    0.7300    0.7400    0.7500    0.7600    0.7700    0.7800    0.7900
    0.8000    0.8100    0.8200    0.8300    0.8400    0.8500    0.8600    0.8700
    0.8800    0.8900    0.9000    0.9100    0.9200    0.9300    0.9400    0.9500
    0.9600    0.9700    0.9800    0.9900    1.0000    1.0100    1.0200    1.0300
    1.0400    1.0500    1.0600    1.0700    1.0800    1.0900    1.1000    1.1100
    1.1200    1.1300    1.1400    1.1500    1.1600    1.1700    1.1800    1.1900
    1.2000    1.2100    1.2200    1.2300    1.2400    1.2500    1.2600    1.2700
    1.2800    1.2900    1.3000    1.3100    1.3200    1.3300    1.3400    1.3500
    1.3600    1.3700    1.3800    1.3900    1.4000    1.4100    1.4200    1.4300
    1.4400    1.4500    1.4600    1.4700    1.4800    1.4900    1.5000    1.5100
    1.5200    1.5300    1.5400    1.5500    1.5600    1.5700    1.5800    1.5900
    1.6000    1.6100    1.6200    1.6300    1.6400    1.6500    1.6600    1.6700
    1.6800    1.6900    1.7000    1.7100    1.7200    1.7300    1.7400    1.7500
    1.7600    1.7700    1.7800    1.7900    1.8000    1.8100    1.8200    1.8300
    1.8400    1.8500    1.8600    1.8700    1.8800    1.8900    1.9000    1.9100
    1.9200    1.9300    1.9400    1.9500    1.9600    1.9700    1.9800    1.9900
    2.0000    2.0100    2.0200    2.0300    2.0400    2.0500    2.0600    2.0700
    2.0800    2.0900    2.1000    2.1100    2.1200    2.1300    2.1400    2.1500
    2.1600    2.1700    2.1800    2.1900    2.2000    2.2100    2.2200    2.2300
    2.2400    2.2500    2.2600    2.2700    2.2800    2.2900    2.3000    2.3100
    2.3200    2.3300    2.3400    2.3500    2.3600    2.3700    2.3800    2.3900
    2.4000    2.4100    2.4200    2.4300    2.4400    2.4500    2.4600    2.4700
    2.4800    2.4900    2.5000    2.5100    2.5200    2.5300    2.5400    2.5500
    2.5600    2.5700    2.5800    2.5900    2.6000    2.6100    2.6200    2.6300
    2.6400    2.6500    2.6600    2.6700    2.6800    2.6900    2.7000    2.7100
    2.7200    2.7300    2.7400    2.7500    2.7600    2.7700    2.7800    2.7900
    2.8000    2.8100    2.8200    2.8300    2.8400    2.8500    2.8600    2.8700
    2.8800    2.8900    2.9000    2.9100    2.9200    2.9300    2.9400    2.9500
    2.9600    2.9700    2.9800    2.9900    3.0000    3.0100    3.0200    3.0300
    3.0400    3.0500    3.0600    3.0700    3.0800    3.0900    3.1000    3.1100
    3.1200    3.1300    3.1400    3.1500    3.1600    3.1700    3.1800    3.1900
    3.2000    3.2100    3.2200    3.2300    3.2400    3.2500    3.2600    3.2700
    3.2800    3.2900    3.3000    3.3100    3.3200    3.3300    3.3400    3.3500
    3.3600    3.3700    3.3800    3.3900    3.4000    3.4100    3.4200    3.4300
    3.4400    3.4500    3.4600    3.4700    3.4800    3.4900    3.5000    3.5100
    3.5200    3.5300    3.5400    3.5500    3.5600    3.5700    3.5800    3.5900
    3.6000    3.6100    3.6200    3.6300    3.6400    3.6500    3.6600    3.6700
    3.6800    3.6900    3.7000    3.7100    3.7200    3.7300    3.7400    3.7500
    3.7600    3.7700    3.7800    3.7900    3.8000    3.8100    3.8200    3.8300
    3.8400    3.8500    3.8600    3.8700    3.8800    3.8900    3.9000    3.9100
    3.9200    3.9300    3.9400    3.9500    3.9600    3.9700    3.9800    3.9900
    4.0000    4.0100    4.0200    4.0300    4.0400    4.0500    4.0600    4.0700
    4.0800    4.0900    4.1000    4.1100    4.1200    4.1300    4.1400    4.1500
    4.1600    4.1700    4.1800    4.1900    4.2000    4.2100    4.2200    4.2300
    4.2400    4.2500    4.2600    4.2700    4.2800    4.2900    4.3000    4.3100
    4.3200    4.3300    4.3400    4.3500    4.3600    4.3700    4.3800    4.3900
    4.4000    4.4100    4.4200    4.4300    4.4400    4.4500    4.4600    4.4700
    4.4800    4.4900    4.5000    4.5100    4.5200    4.5300    4.5400    4.5500
    4.5600    4.5700    4.5800    4.5900    4.6000    4.6100    4.6200    4.6300
    4.6400    4.6500    4.6600    4.6700    4.6800    4.6900    4.7000    4.7100
    4.7200    4.7300    4.7400    4.7500    4.7600    4.7700    4.7800    4.7900
    4.8000    4.8100    4.8200    4.8300    4.8400    4.8500    4.8600    4.8700
    4.8800    4.8900    4.9000    4.9100    4.9200    4.9300    4.9400    4.9500
    4.9600    4.9700    4.9800    4.9900    5.0000    5.0100    5.0200    5.0300
    5.0400    5.0500    5.0600    5.0700    5.0800    5.0900    5.1000    5.1100
    5.1200    5.1300    5.1400    5.1500    5.1600    5.1700    5.1800    5.1900
    5.2000    5.2100    5.2200    5.2300    5.2400    5.2500    5.2600    5.2700
    5.2800    5.2900    5.3000    5.3100    5.3200    5.3300    5.3400    5.3500
    5.3600    5.3700    5.3800    5.3900    5.4000    5.4100    5.4200    5.4300
    5.4400    5.4500    5.4600    5.4700    5.4800    5.4900    5.5000    5.5100
    5.5200    5.5300    5.5400    5.5500    5.5600    5.5700    5.5800    5.5900
    5.6000    5.6100    5.6200    5.6300    5.6400    5.6500    5.6600    5.6700
    5.6800    5.6900    5.7000    5.7100    5.7200    5.7300    5.7400    5.7500
    5.7600    5.7700    5.7800    5.7900    5.8000    5.8100    5.8200    5.8300
    5.8400    5.8500    5.8600    5.8700    5.8800    5.8900    5.9000    5.9100
    5.9200    5.9300    5.9400    5.9500    5.9600    5.9700    5.9800    5.9900
    6.0000    6.0100
   </PP_R>
   <PP_RAB type="real"  size=" 602" columns="8">
    0.0100    0.0100    0.0100    0.0100    0.0100    0.0100    0.0100    0.0100
    0.0100    0.0100    0.0100    0.0100    0.0100    0.0100    0.0100    0.0100
    0.0100    0.0100    0.0100    0.0100    0.0100    0.0100    0.0100    0.0100
    0.0100    0.0100    0.0100    0.0100    0.0100    0.0100    0.0100    0.0100
    0.0100    0.0100    0.0100    0.0100    0.0100    0.0100    0.0100    0.0100
    0.0100    0.0100    0.0100    0.0100    0.0100    0.0100    0.0100    0.0100
    0.0100    0.0100    0.0100    0.0100    0.0100    0.0100    0.0100    0.0100
    0.0100    0.0100    0.0100    0.0100    0.0100    0.0100    0.0100    0.0100
    0.0100    0.0100    0.0100    0.0100    0.0100    0.0100    0.0100    0.0100
    0.0100    0.0100    0.0100    0.0100    0.0100    0.0100    0.0100    0.0100
    0.0100    0.0100    0.0100    0.0100    0.0100    0.0100    0.0100    0.0100
    0.0100    0.0100    0.0100    0.0100    0.0100    0.0100    0.0100    0.0100
    0.0100    0.0100    0.0100    0.0100    0.0100    0.0100    0.0100    0.0100
    0.0100    0.0100    0.0100    0.0100    0.0100    0.0100    0.0100    0.0100
    0.0100    0.0100    0.0100    0.0100    0.0100    0.0100    0.0100    0.0100
    0.0100    0.0100    0.0100    0.0100    0.0100    0.0100    0.0100    0.0100
    0.0100    0.0100    0.0100    0.0100    0.0100    0.0100    0.0100    0.0100
    0.0100    0.0100    0.0100    0.0100    0.0100    0.0100    0.0100    0.0100
    0.0100    0.0100    0.0100    0.0100    0.0100    0.0100    0.0100    0.0100
    0.0100    0.0100    0.0100    0.0100    0.0100    0.0100    0.0100    0.0100
    0.0100    0.0100    0.0100    0.0100    0.0100    0.0100    0.0100    0.0100
    0.0100    0.0100    0.0100    0.0100    0.0100    0.0100    0.0100    0.0100
    0.0100    0.0100    0.0100    0.0100    0.0100    0.0100    0.0100    0.0100
    0.0100    0.0100    0.0100    0.0100    0.0100    0.0100    0.0100    0.0100
    0.0100    0.0100    0.0100    0.0100    0.0100    0.0100    0.0100    0.0100
    0.0100    0.0100    0.0100    0.0100    0.0100    0.0100    0.0100    0.0100
    0.0100    0.0100    0.0100    0.0100    0.0100    0.0100    0.0100    0.0100
    0.0100    0.0100    0.0100    0.0100    0.0100    0.0100    0.0100    0.0100
    0.0100    0.0100    0.0100    0.0100    0.0100    0.0100    0.0100    0.0100
    0.0100    0.0100    0.0100    0.0100    0.0100    0.0100    0.0100    0.0100
    0.0100    0.0100    0.0100    0.0100    0.0100    0.0100    0.0100    0.0100
    0.0100    0.0100    0.0100    0.0100    0.0100    0.0100    0.0100    0.0100
    0.0100    0.0100    0.0100    0.0100    0.0100    0.0100    0.0100    0.0100
    0.0100    0.0100    0.0100    0.0100    0.0100    0.0100    0.0100    0.0100
    0.0100    0.0100    0.0100    0.0100    0.0100    0.0100    0.0100    0.0100
    0.0100    0.0100    0.0100    0.0100    0.0100    0.0100    0.0100    0.0100
    0.0100    0.0100    0.0100    0.0100    0.0100    0.0100    0.0100    0.0100
    0.0100    0.0100    0.0100    0.0100    0.0100    0.0100    0.0100    0.0100
    0.0100    0.0100    0.0100    0.0100    0.0100    0.0100    0.0100    0.0100
    0.0100    0.0100    0.0100    0.0100    0.0100    0.0100    0.0100    0.0100
    0.0100    0.0100    0.0100    0.0100    0.0100    0.0100    0.0100    0.0100
    0.0100    0.0100    0.0100    0.0100    0.0100    0.0100    0.0100    0.0100
    0.0100    0.0100    0.0100    0.0100    0.0100    0.0100    0.0100    0.0100
    0.0100    0.0100    0.0100    0.0100    0.0100    0.0100    0.0100    0.0100
    0.0100    0.0100    0.0100    0.0100    0.0100    0.0100    0.0100    0.0100
    0.0100    0.0100    0.0100    0.0100    0.0100    0.0100    0.0100    0.0100
    0.0100    0.0100    0.0100    0.0100    0.0100    0.0100    0.0100    0.0100
    0.0100    0.0100    0.0100    0.0100    0.0100    0.0100    0.0100    0.0100
    0.0100    0.0100    0.0100    0.0100    0.0100    0.0100    0.0100    0.0100
    0.0100    0.0100    0.0100    0.0100    0.0100    0.0100    0.0100    0.0100
    0.0100    0.0100    0.0100    0.0100    0.0100    0.0100    0.0100    0.0100
    0.0100    0.0100    0.0100    0.0100    0.0100    0.0100    0.0100    0.0100
    0.0100    0.0100    0.0100    0.0100    0.0100    0.0100    0.0100    0.0100
    0.0100    0.0100    0.0100    0.0100    0.0100    0.0100    0.0100    0.0100
    0.0100    0.0100    0.0100    0.0100    0.0100    0.0100    0.0100    0.0100
    0.0100    0.0100    0.0100    0.0100    0.0100    0.0100    0.0100    0.0100
    0.0100    0.0100    0.0100    0.0100    0.0100    0.0100    0.0100    0.0100
    0.0100    0.0100    0.0100    0.0100    0.0100    0.0100    0.0100    0.0100
    0.0100    0.0100    0.0100    0.0100    0.0100    0.0100    0.0100    0.0100
    0.0100    0.0100    0.0100    0.0100    0.0100    0.0100    0.0100    0.0100
    0.0100    0.0100    0.0100    0.0100    0.0100    0.0100    0.0100    0.0100
    0.0100    0.0100    0.0100    0.0100    0.0100    0.0100    0.0100    0.0100
    0.0100    0.0100    0.0100    0.0100    0.0100    0.0100    0.0100    0.0100
    0.0100    0.0100    0.0100    0.0100    0.0100    0.0100    0.0100    0.0100
    0.0100    0.0100    0.0100    0.0100    0.0100    0.0100    0.0100    0.0100
    0.0100    0.0100    0.0100    0.0100    0.0100    0.0100    0.0100    0.0100
    0.0100    0.0100    0.0100    0.0100    0.0100    0.0100    0.0100    0.0100
    0.0100    0.0100    0.0100    0.0100    0.0100    0.0100    0.0100    0.0100
    0.0100    0.0100    0.0100    0.0100    0.0100    0.0100    0.0100    0.0100
    0.0100    0.0100    0.0100    0.0100    0.0100    0.0100    0.0100    0.0100
    0.0100    0.0100    0.0100    0.0100    0.0100    0.0100    0.0100    0.0100
    0.0100    0.0100    0.0100    0.0100    0.0100    0.0100    0.0100    0.0100
    0.0100    0.0100    0.0100    0.0100    0.0100    0.0100    0.0100    0.0100
    0.0100    0.0100    0.0100    0.0100    0.0100    0.0100    0.0100    0.0100
    0.0100    0.0100    0.0100    0.0100    0.0100    0.0100    0.0100    0.0100
    0.0100    0.0100
   </PP_RAB>
 </PP_MESH>
  <PP_LOCAL type="real"  size=" 602" columns="4">
   -2.2562936545E+01   -2.2562911471E+01   -2.2562961662E+01   -2.2562944902E+01
   -2.2562718978E+01   -2.2562100490E+01   -2.2560878207E+01   -2.2558827345E+01
   -2.2555723361E+01   -2.2551354045E+01   -2.2545529144E+01   -2.2538087090E+01
   -2.2528898847E+01   -2.2517869144E+01   -2.2504935550E+01   -2.2490065951E+01
   -2.2473254973E+01   -2.2454519844E+01   -2.2433896088E+01   -2.2411433362E+01
   -2.2387191636E+01   -2.2361237829E+01   -2.2333642965E+01   -2.2304479836E+01
   -2.2273821153E+01   -2.2241738132E+01   -2.2208299459E+01   -2.2173570553E+01
   -2.2137613100E+01   -2.2100484779E+01   -2.2062239135E+01   -2.2022925578E+01
   -2.1982589461E+01   -2.1941272197E+01   -2.1899011444E+01   -2.1855841288E+01
   -2.1811792444E+01   -2.1766892461E+01   -2.1721165926E+01   -2.1674634666E+01
   -2.1627317924E+01   -2.1579232552E+01   -2.1530393181E+01   -2.1480812385E+01
   -2.1430500835E+01   -2.1379467448E+01   -2.1327719531E+01   -2.1275262917E+01
   -2.1222102091E+01   -2.1168240320E+01   -2.1113679777E+01   -2.1058421663E+01
   -2.1002466310E+01   -2.0945813305E+01   -2.0888461606E+01   -2.0830409633E+01
   -2.0771655394E+01   -2.0712196571E+01   -2.0652030636E+01   -2.0591154942E+01
   -2.0529566816E+01   -2.0467263662E+01   -2.0404243041E+01   -2.0340502753E+01
   -2.0276040937E+01   -2.0210856124E+01   -2.0144947314E+01   -2.0078314065E+01
   -2.0010956525E+01   -1.9942875496E+01   -1.9874072479E+01   -1.9804549741E+01
   -1.9734310322E+01   -1.9663358078E+01   -1.9591697697E+01   -1.9519334720E+01
   -1.9446275551E+01   -1.9372527476E+01   -1.9298098642E+01   -1.9222998054E+01
   -1.9147235568E+01   -1.9070821871E+01   -1.8993768460E+01   -1.8916087618E+01
   -1.8837792381E+01   -1.8758896511E+01   -1.8679414456E+01   -1.8599361316E+01
   -1.8518752806E+01   -1.8437605208E+01   -1.8355935339E+01   -1.8273760504E+01
   -1.8191098456E+01   -1.8107967355E+01   -1.8024385723E+01   -1.7940372408E+01
   -1.7855946555E+01   -1.7771127551E+01   -1.7685934993E+01   -1.7600388660E+01
   -1.7514508472E+01   -1.7428314462E+01   -1.7341826747E+01   -1.7255065506E+01
   -1.7168050940E+01   -1.7080803257E+01   -1.6993342646E+01   -1.6905689265E+01
   -1.6817863205E+01   -1.6729884484E+01   -1.6641773023E+01   -1.6553548648E+01
   -1.6465231063E+01   -1.6376839818E+01   -1.6288394329E+01   -1.6199913871E+01
   -1.6111417544E+01   -1.6022924253E+01   -1.5934452733E+01   -1.5846021571E+01
   -1.5757649088E+01   -1.5669353421E+01   -1.5581152541E+01   -1.5493064166E+01
   -1.5405105769E+01   -1.5317294657E+01   -1.5229647889E+01   -1.5142182231E+01
   -1.5054914293E+01   -1.4967860414E+01   -1.4881036621E+01   -1.4794458801E+01
   -1.4708142507E+01   -1.4622103001E+01   -1.4536355427E+01   -1.4450914479E+01
   -1.4365794655E+01   -1.4281010270E+01   -1.4196575143E+01   -1.4112503022E+01
   -1.4028807235E+01   -1.3945500793E+01   -1.3862596608E+01   -1.3780106967E+01
   -1.3698044158E+01   -1.3616419944E+01   -1.3535245826E+01   -1.3454533103E+01
   -1.3374292453E+01   -1.3294534663E+01   -1.3215269669E+01   -1.3136507506E+01
   -1.3058257563E+01   -1.2980529023E+01   -1.2903330721E+01   -1.2826670966E+01
   -1.2750558018E+01   -1.2674999297E+01   -1.2600002465E+01   -1.2525574069E+01
   -1.2451721078E+01   -1.2378449250E+01   -1.2305764741E+01   -1.2233672585E+01
   -1.2162178094E+01   -1.2091285549E+01   -1.2020999423E+01   -1.1951323217E+01
   -1.1882260578E+01   -1.1813814193E+01   -1.1745986904E+01   -1.1678780549E+01
   -1.1612197193E+01   -1.1546237792E+01   -1.1480903668E+01   -1.1416194858E+01
   -1.1352111979E+01   -1.1288654122E+01   -1.1225821238E+01   -1.1163611507E+01
   -1.1102024072E+01   -1.1041056406E+01   -1.0980706701E+01   -1.0920971852E+01
   -1.0861849035E+01   -1.0803334641E+01   -1.0745424791E+01   -1.0688115439E+01
   -1.0631401621E+01   -1.0575278909E+01   -1.0519741309E+01   -1.0464783843E+01
   -1.0410399827E+01   -1.0356583288E+01   -1.0303327282E+01   -1.0250624662E+01
   -1.0198468306E+01   -1.0146849864E+01   -1.0095761984E+01   -1.0045195509E+01
   -9.9951418308E+00   -9.9455922290E+00   -9.8965378172E+00   -9.8479697215E+00
   -9.7998800873E+00   -9.7522603012E+00   -9.7051028918E+00   -9.6584001430E+00
   -9.6121444524E+00   -9.5663290564E+00   -9.5209464503E+00   -9.4759903151E+00
   -9.4314539592E+00   -9.3873308398E+00   -9.3436151534E+00   -9.3003004428E+00
   -9.2573812194E+00   -9.2148517910E+00   -9.1727063889E+00   -9.1309400393E+00
   -9.0895472227E+00   -9.0485229938E+00   -9.0078625620E+00   -8.9675607056E+00
   -8.9276131147E+00   -8.8880150635E+00   -8.8487619441E+00   -8.8098496075E+00
   -8.7712735312E+00   -8.7330296006E+00   -8.6951138007E+00   -8.6575218097E+00
   -8.6202498932E+00   -8.5832941227E+00   -8.5466504818E+00   -8.5103154127E+00
   -8.4742851074E+00   -8.4385558446E+00   -8.4031241776E+00   -8.3679864309E+00
   -8.3331391277E+00   -8.2985789306E+00   -8.2643022906E+00   -8.2303059407E+00
   -8.1965866549E+00   -8.1631410076E+00   -8.1299659176E+00   -8.0970582751E+00
   -8.0644147773E+00   -8.0320325114E+00   -7.9999084878E+00   -7.9680395310E+00
   -7.9364228767E+00   -7.9050556597E+00   -7.8739348386E+00   -7.8430577720E+00
   -7.8124217201E+00   -7.7820237822E+00   -7.7518614076E+00   -7.7219319757E+00
   -7.6922327297E+00   -7.6627611727E+00   -7.6335147857E+00   -7.6044909455E+00
   -7.5756871796E+00   -7.5471010407E+00   -7.5187299897E+00   -7.4905715802E+00
   -7.4626234442E+00   -7.4348830872E+00   -7.4073480641E+00   -7.3800162342E+00
   -7.3528852827E+00   -7.3259527487E+00   -7.2992167197E+00   -7.2726750630E+00
   -7.2463255062E+00   -7.2201661120E+00   -7.1941948728E+00   -7.1684096394E+00
   -7.1428084590E+00   -7.1173895109E+00   -7.0921508510E+00   -7.0670905036E+00
   -7.0422067224E+00   -7.0174976612E+00   -6.9929613776E+00   -6.9685961522E+00
   -6.9444002251E+00   -6.9203717363E+00   -6.8965089065E+00   -6.8728101686E+00
   -6.8492738407E+00   -6.8258981227E+00   -6.8026815049E+00   -6.7796223812E+00
   -6.7567190683E+00   -6.7339699642E+00   -6.7113736203E+00   -6.6889284995E+00
   -6.6666329405E+00   -6.6444855748E+00   -6.6224849525E+00   -6.6006295631E+00
   -6.5789179028E+00   -6.5573486730E+00   -6.5359204751E+00   -6.5146318171E+00
   -6.4934813880E+00   -6.4724679026E+00   -6.4515900278E+00   -6.4308462988E+00
   -6.4102355728E+00   -6.3897565805E+00   -6.3694080139E+00   -6.3491885564E+00
   -6.3290970951E+00   -6.3091324187E+00   -6.2892932487E+00   -6.2695784030E+00
   -6.2499867940E+00   -6.2305172677E+00   -6.2111685807E+00   -6.1919396647E+00
   -6.1728294608E+00   -6.1538368694E+00   -6.1349606868E+00   -6.1161999391E+00
   -6.0975535993E+00   -6.0790206197E+00   -6.0605998405E+00   -6.0422903630E+00
   -6.0240911967E+00   -6.0060013430E+00   -5.9880196889E+00   -5.9701453939E+00
   -5.9523775079E+00   -5.9347150789E+00   -5.9171570434E+00   -5.8997026035E+00
   -5.8823508529E+00   -5.8651008843E+00   -5.8479516855E+00   -5.8309024871E+00
   -5.8139524301E+00   -5.7971006495E+00   -5.7803461870E+00   -5.7636882879E+00
   -5.7471261438E+00   -5.7306589300E+00   -5.7142857446E+00   -5.6980058348E+00
   -5.6818184457E+00   -5.6657227908E+00   -5.6497180280E+00   -5.6338033938E+00
   -5.6179781892E+00   -5.6022416644E+00   -5.5865930399E+00   -5.5710315305E+00
   -5.5555564949E+00   -5.5401672181E+00   -5.5248629848E+00   -5.5096429831E+00
   -5.4945066257E+00   -5.4794532319E+00   -5.4644821199E+00   -5.4495925443E+00
   -5.4347838707E+00   -5.4200554848E+00   -5.4054067362E+00   -5.3908369508E+00
   -5.3763454372E+00   -5.3619316477E+00   -5.3475949623E+00   -5.3333347609E+00
   -5.3191503492E+00   -5.3050411847E+00   -5.2910066956E+00   -5.2770462911E+00
   -5.2631593521E+00   -5.2493452584E+00   -5.2356035109E+00   -5.2219335459E+00
   -5.2083347999E+00   -5.1948066431E+00   -5.1813485729E+00   -5.1679600761E+00
   -5.1546406152E+00   -5.1413896414E+00   -5.1282065561E+00   -5.1150909223E+00
   -5.1020422278E+00   -5.0890599601E+00   -5.0761435668E+00   -5.0632925397E+00
   -5.0505064368E+00   -5.0377847696E+00   -5.0251270497E+00   -5.0125327267E+00
   -5.0000013681E+00   -4.9875325304E+00   -4.9751257478E+00   -4.9627805547E+00
   -4.9504964081E+00   -4.9382729365E+00   -4.9261096992E+00   -4.9140062522E+00
   -4.9019621415E+00   -4.8899768660E+00   -4.8780500716E+00   -4.8661813348E+00
   -4.8543702323E+00   -4.8426163227E+00   -4.8309191449E+00   -4.8192783552E+00
   -4.8076935500E+00   -4.7961643257E+00   -4.7846902573E+00   -4.7732709122E+00
   -4.7619059607E+00   -4.7505950179E+00   -4.7393376992E+00   -4.7281335997E+00
   -4.7169823041E+00   -4.7058835002E+00   -4.6948368213E+00   -4.6838419004E+00
   -4.6728983566E+00   -4.6620057814E+00   -4.6511638836E+00   -4.6403723133E+00
   -4.6296307207E+00   -4.6189387521E+00   -4.6082959963E+00   -4.5977021857E+00
   -4.5871569868E+00   -4.5766600662E+00   -4.5662110904E+00   -4.5558096666E+00
   -4.5454555237E+00   -4.5351483536E+00   -4.5248878385E+00   -4.5146736604E+00
   -4.5045054601E+00   -4.4943829423E+00   -4.4843058310E+00   -4.4742738230E+00
   -4.4642866154E+00   -4.4543438859E+00   -4.4444453066E+00   -4.4345906359E+00
   -4.4247795849E+00   -4.4150118645E+00   -4.4052871857E+00   -4.3956052019E+00
   -4.3859656868E+00   -4.3763683714E+00   -4.3668129803E+00   -4.3572992380E+00
   -4.3478268402E+00   -4.3383955105E+00   -4.3290050211E+00   -4.3196551094E+00
   -4.3103455127E+00   -4.3010759683E+00   -4.2918461564E+00   -4.2826558783E+00
   -4.2735048877E+00   -4.2643929343E+00   -4.2553197674E+00   -4.2462851152E+00
   -4.2372887133E+00   -4.2283303622E+00   -4.2194098230E+00   -4.2105268570E+00
   -4.2016812252E+00   -4.1928726475E+00   -4.1841009164E+00   -4.1753658220E+00
   -4.1666671366E+00   -4.1580046325E+00   -4.1493780820E+00   -4.1407872013E+00
   -4.1322318285E+00   -4.1237117472E+00   -4.1152267403E+00   -4.1067765908E+00
   -4.0983610699E+00   -4.0899799296E+00   -4.0816330074E+00   -4.0733200964E+00
   -4.0650409897E+00   -4.0567954801E+00   -4.0485833414E+00   -4.0404043536E+00
   -4.0322583550E+00   -4.0241451483E+00   -4.0160645362E+00   -4.0080163214E+00
   -4.0000002834E+00   -3.9920162210E+00   -3.9840639769E+00   -3.9761433630E+00
   -3.9682541911E+00   -3.9603962731E+00   -3.9525693981E+00   -3.9447733745E+00
   -3.9370080529E+00   -3.9292732538E+00   -3.9215687980E+00   -3.9138945061E+00
   -3.9062501798E+00   -3.8986356290E+00   -3.8910507152E+00   -3.8834952675E+00
   -3.8759691149E+00   -3.8684720863E+00   -3.8610039993E+00   -3.8535646575E+00
   -3.8461539363E+00   -3.8387716728E+00   -3.8314177038E+00   -3.8240918664E+00
   -3.8167939969E+00   -3.8095238853E+00   -3.8022814237E+00   -3.7950664567E+00
   -3.7878788288E+00   -3.7807183845E+00   -3.7735849686E+00   -3.7664783908E+00
   -3.7593985223E+00   -3.7523452280E+00   -3.7453183598E+00   -3.7383177695E+00
   -3.7313433089E+00   -3.7243948128E+00   -3.7174721226E+00   -3.7105751267E+00
   -3.7037036839E+00   -3.6968576529E+00   -3.6900368924E+00   -3.6832412611E+00
   -3.6764705760E+00   -3.6697247400E+00   -3.6630036217E+00   -3.6563070866E+00
   -3.6496350000E+00   -3.6429872270E+00   -3.6363636150E+00   -3.6297640231E+00
   -3.6231883495E+00   -3.6166364658E+00   -3.6101082435E+00   -3.6036035541E+00
   -3.5971222694E+00   -3.5906642256E+00   -3.5842293260E+00   -3.5778174563E+00
   -3.5714284941E+00   -3.5650623170E+00   -3.5587188026E+00   -3.5523978224E+00
   -3.5460992243E+00   -3.5398229279E+00   -3.5335688163E+00   -3.5273367728E+00
   -3.5211266808E+00   -3.5149384235E+00   -3.5087718681E+00   -3.5026268903E+00
   -3.4965034043E+00   -3.4904012988E+00   -3.4843204625E+00   -3.4782607842E+00
   -3.4722221525E+00   -3.4662044340E+00   -3.4602075237E+00   -3.4542313341E+00
   -3.4482757589E+00   -3.4423406921E+00   -3.4364260276E+00   -3.4305316593E+00
   -3.4246574561E+00   -3.4188033251E+00   -3.4129691798E+00   -3.4071549191E+00
   -3.4013604418E+00   -3.3955856467E+00   -3.3898304327E+00   -3.3840946742E+00
   -3.3783782829E+00   -3.3726811767E+00   -3.3670032592E+00   -3.3613444338E+00
   -3.3557046042E+00   -3.3500836739E+00   -3.3444815258E+00   -3.3388980691E+00
   -3.3333332292E+00   -3.3277869140E+00
  </PP_LOCAL>
 <PP_NONLOCAL>
   <PP_BETA.1
       type="real"
       size=" 602"
       columns="4"
       index="1"
       angular_momentum="0"
       cutoff_radius_index=" 286"
       cutoff_radius="    2.8500000000E+00" >
    0.0000000000E+00    5.4137209229E-03    1.0814261262E-02    1.6188432333E-02
    2.1523029365E-02    2.6804823755E-02    3.2020555660E-02    3.7156927062E-02
    4.2200595403E-02    4.7138167902E-02    5.1956196668E-02    5.6641174700E-02
    6.1179532879E-02    6.5557638051E-02    6.9761792278E-02    7.3778233350E-02
    7.7593136639E-02    8.1192618360E-02    8.4562740301E-02    8.7689516097E-02
    9.0558919085E-02    9.3156891790E-02    9.5469357082E-02    9.7482231023E-02
    9.9181437421E-02    1.0055292417E-01    1.0158268120E-01    1.0225676033E-01
    1.0256129666E-01    1.0248253177E-01    1.0200683856E-01    1.0112074768E-01
    9.9810975436E-02    9.8064453695E-02    9.5868360372E-02    9.3210152260E-02
    9.0077598199E-02    8.6458814687E-02    8.2342301034E-02    7.7716976515E-02
    7.2572218994E-02    6.6897902698E-02    6.0684437791E-02    5.3922810182E-02
    4.6604621709E-02    3.8722130541E-02    3.0268291667E-02    2.1236796443E-02
    1.1622114633E-02    1.4195334893E-03   -9.3748035115E-03   -2.0763860677E-02
   -3.2749665022E-02   -4.5333276214E-02   -5.8514752468E-02   -7.2293105608E-02
   -8.6666286439E-02   -1.0163113167E-01   -1.1718336014E-01   -1.3331751886E-01
   -1.5002698535E-01   -1.6730392134E-01   -1.8513926795E-01   -2.0352272819E-01
   -2.2244273786E-01   -2.4188647081E-01   -2.6183982717E-01   -2.8228741366E-01