<UPF version="2.0.1">
  <PP_INFO>

 Ta_ONCV_PBE_FR-1.0.upf

 This pseudopotential file has been produced using the code
 ONCVPSP  (Optimized Norm-Conservinng Vanderbilt PSeudopotential)
 fully-relativistic version 2.1.1, 03/26/2014 by D. R. Hamann
 The code is available through a link at URL www.mat-simresearch.com.
 Documentation with the package provides a full description of the
 input data below.

 While it is not required under the terms of the GNU GPL, it is
 suggested that you cite D. R. Hamann, Phys. Rev. B 88, 085117 (2013)
 in any publication using these pseudopotentials.

 -----

 This pseudopotential was produced with the SG15 1.0 and/or 1.1
 parameter sets, the Schlipf-Gygi norm-conserving pseudopotential
 library. For details of the construction and testing of the
 pseudopotential please refer to:

 M. Schlipf, F. Gygi, Comp. Phys. Comm. 196, 36 (2015)
 http://dx.doi.org/10.1016/j.cpc.2015.05.011

 The above authors kindly ask that you include this reference in all
 publications associated to this pseudopotential.

 Please note this fully-relativistic version does not employ the
 above self-consistent procedure at the fully-relativistic level.

 -----

 This pseudopotential was produced by Peter Scherpelz for the purpose
 of performing GW calculations with spin-orbit-coupling. Please see
 the publication:

 P. Scherpelz, M. Govoni, I. Hamada, G. Galli; J. Chem. Theory Comput. (2016)
 http://dx.doi.org/10.1021/acs.jctc.6b00114

 If you use these pseudopotentials in your work, we also kindly ask
 that you cite the above publication.

 -----

 This work is licensed under the Creative Commons Attribution-ShareAlike 
 4.0 International License. To view a copy of this license, visit 
 http://creativecommons.org/licenses/by-sa/4.0/ or send a letter to 
 Creative Commons, PO Box 1866, Mountain View, CA 94042, USA.

 The SG15 library is Copyright 2015 The Regents of the University of
 California.  Further modifications of these files are Copyright 2016
 Peter Scherpelz.

    <PP_INPUTFILE>
# ATOM AND REFERENCE CONFIGURATION
# atsym  z    nc    nv    iexc   psfile
  Ta 73.00     9     5     4      upf
#
#   n    l    f        energy (Ha)
    1    0    2.00
    2    0    2.00
    2    1    6.00
    3    0    2.00
    3    1    6.00
    3    2   10.00
    4    0    2.00
    4    1    6.00
    4    2   10.00
    4    3   14.00
    5    0    2.00
    5    1    6.00
    6    0    2.00
    5    2    3.00
#
# PSEUDOPOTENTIAL AND OPTIMIZATION
# lmax
    3
#
#   l,   rc,     ep,   ncon, nbas, qcut
    0    2.25   -2.68    5    8    7.29
    1    2.17   -1.36    5    8    7.39
    2    2.02   -0.12    5    8    7.65
    3    2.97   -0.87    5    8    7.19
#
# LOCAL POTENTIAL
# lloc, lpopt,  rc(5),   dvloc0
    4    5      1.84       0.00
#
# VANDERBILT-KLEINMAN-BYLANDER PROJECTORs
# l, nproj, debl
    0    2    2.4765
    1    2    1.3104
    2    2    0.9700
    3    2    1.1381
#
# MODEL CORE CHARGE
# icmod, fcfact
    0    0.00
#
# LOG DERIVATIVE ANALYSIS
# epsh1, epsh2, depsh
   -5.00    3.00    0.02
#
# OUTPUT GRID
# rlmax, drl
    6.00    0.01
#
# TEST CONFIGURATIONS
# ncnf
    0
# nvcnf
#   n    l    f
    </PP_INPUTFILE>
  </PP_INFO>
  <!--                               -->
  <!-- END OF HUMAN READABLE SECTION -->
  <!--                               -->
    <PP_HEADER
       generated="Generated using ONCVPSP code by D. R. Hamann"
       author="anonymous"
       date="150703"
       comment=""
       element="Ta"
       pseudo_type="NC"
       relativistic="full"
       is_ultrasoft="F"
       is_paw="F"
       is_coulomb="F"
       has_so="T"
       has_wfc="F"
       has_gipaw="F"
       core_correction="F"
       functional="PBE"
       z_valence="   27.00"
       total_psenergy="  -2.47982379935E+02"
       rho_cutoff="   6.01000000000E+00"
       l_max="3"
       l_local="-1"
       mesh_size="   602"
       number_of_wfc="0"
       number_of_proj="14"/>
 <PP_MESH>
   <PP_R type="real"  size=" 602" columns="8">
    0.0000    0.0100    0.0200    0.0300    0.0400    0.0500    0.0600    0.0700
    0.0800    0.0900    0.1000    0.1100    0.1200    0.1300    0.1400    0.1500
    0.1600    0.1700    0.1800    0.1900    0.2000    0.2100    0.2200    0.2300
    0.2400    0.2500    0.2600    0.2700    0.2800    0.2900    0.3000    0.3100
    0.3200    0.3300    0.3400    0.3500    0.3600    0.3700    0.3800    0.3900
    0.4000    0.4100    0.4200    0.4300    0.4400    0.4500    0.4600    0.4700
    0.4800    0.4900    0.5000    0.5100    0.5200    0.5300    0.5400    0.5500
    0.5600    0.5700    0.5800    0.5900    0.6000    0.6100    0.6200    0.6300
    0.6400    0.6500    0.6600    0.6700    0.6800    0.6900    0.7000    0.7100
    0.7200    0.7300    0.7400    0.7500    0.7600    0.7700    0.7800    0.7900
    0.8000    0.8100    0.8200    0.8300    0.8400    0.8500    0.8600    0.8700
    0.8800    0.8900    0.9000    0.9100    0.9200    0.9300    0.9400    0.9500
    0.9600    0.9700    0.9800    0.9900    1.0000    1.0100    1.0200    1.0300
    1.0400    1.0500    1.0600    1.0700    1.0800    1.0900    1.1000    1.1100
    1.1200    1.1300    1.1400    1.1500    1.1600    1.1700    1.1800    1.1900
    1.2000    1.2100    1.2200    1.2300    1.2400    1.2500    1.2600    1.2700
    1.2800    1.2900    1.3000    1.3100    1.3200    1.3300    1.3400    1.3500
    1.3600    1.3700    1.3800    1.3900    1.4000    1.4100    1.4200    1.4300
    1.4400    1.4500    1.4600    1.4700    1.4800    1.4900    1.5000    1.5100
    1.5200    1.5300    1.5400    1.5500    1.5600    1.5700    1.5800    1.5900
    1.6000    1.6100    1.6200    1.6300    1.6400    1.6500    1.6600    1.6700
    1.6800    1.6900    1.7000    1.7100    1.7200    1.7300    1.7400    1.7500
    1.7600    1.7700    1.7800    1.7900    1.8000    1.8100    1.8200    1.8300
    1.8400    1.8500    1.8600    1.8700    1.8800    1.8900    1.9000    1.9100
    1.9200    1.9300    1.9400    1.9500    1.9600    1.9700    1.9800    1.9900
    2.0000    2.0100    2.0200    2.0300    2.0400    2.0500    2.0600    2.0700
    2.0800    2.0900    2.1000    2.1100    2.1200    2.1300    2.1400    2.1500
    2.1600    2.1700    2.1800    2.1900    2.2000    2.2100    2.2200    2.2300
    2.2400    2.2500    2.2600    2.2700    2.2800    2.2900    2.3000    2.3100
    2.3200    2.3300    2.3400    2.3500    2.3600    2.3700    2.3800    2.3900
    2.4000    2.4100    2.4200    2.4300    2.4400    2.4500    2.4600    2.4700
    2.4800    2.4900    2.5000    2.5100    2.5200    2.5300    2.5400    2.5500
    2.5600    2.5700    2.5800    2.5900    2.6000    2.6100    2.6200    2.6300
    2.6400    2.6500    2.6600    2.6700    2.6800    2.6900    2.7000    2.7100
    2.7200    2.7300    2.7400    2.7500    2.7600    2.7700    2.7800    2.7900
    2.8000    2.8100    2.8200    2.8300    2.8400    2.8500    2.8600    2.8700
    2.8800    2.8900    2.9000    2.9100    2.9200    2.9300    2.9400    2.9500
    2.9600    2.9700    2.9800    2.9900    3.0000    3.0100    3.0200    3.0300
    3.0400    3.0500    3.0600    3.0700    3.0800    3.0900    3.1000    3.1100
    3.1200    3.1300    3.1400    3.1500    3.1600    3.1700    3.1800    3.1900
    3.2000    3.2100    3.2200    3.2300    3.2400    3.2500    3.2600    3.2700
    3.2800    3.2900    3.3000    3.3100    3.3200    3.3300    3.3400    3.3500
    3.3600    3.3700    3.3800    3.3900    3.4000    3.4100    3.4200    3.4300
    3.4400    3.4500    3.4600    3.4700    3.4800    3.4900    3.5000    3.5100
    3.5200    3.5300    3.5400    3.5500    3.5600    3.5700    3.5800    3.5900
    3.6000    3.6100    3.6200    3.6300    3.6400    3.6500    3.6600    3.6700
    3.6800    3.6900    3.7000    3.7100    3.7200    3.7300    3.7400    3.7500
    3.7600    3.7700    3.7800    3.7900    3.8000    3.8100    3.8200    3.8300
    3.8400    3.8500    3.8600    3.8700    3.8800    3.8900    3.9000    3.9100
    3.9200    3.9300    3.9400    3.9500    3.9600    3.9700    3.9800    3.9900
    4.0000    4.0100    4.0200    4.0300    4.0400    4.0500    4.0600    4.0700
    4.0800    4.0900    4.1000    4.1100    4.1200    4.1300    4.1400    4.1500
    4.1600    4.1700    4.1800    4.1900    4.2000    4.2100    4.2200    4.2300
    4.2400    4.2500    4.2600    4.2700    4.2800    4.2900    4.3000    4.3100
    4.3200    4.3300    4.3400    4.3500    4.3600    4.3700    4.3800    4.3900
    4.4000    4.4100    4.4200    4.4300    4.4400    4.4500    4.4600    4.4700
    4.4800    4.4900    4.5000    4.5100    4.5200    4.5300    4.5400    4.5500
    4.5600    4.5700    4.5800    4.5900    4.6000    4.6100    4.6200    4.6300
    4.6400    4.6500    4.6600    4.6700    4.6800    4.6900    4.7000    4.7100
    4.7200    4.7300    4.7400    4.7500    4.7600    4.7700    4.7800    4.7900
    4.8000    4.8100    4.8200    4.8300    4.8400    4.8500    4.8600    4.8700
    4.8800    4.8900    4.9000    4.9100    4.9200    4.9300    4.9400    4.9500
    4.9600    4.9700    4.9800    4.9900    5.0000    5.0100    5.0200    5.0300
    5.0400    5.0500    5.0600    5.0700    5.0800    5.0900    5.1000    5.1100
    5.1200    5.1300    5.1400    5.1500    5.1600    5.1700    5.1800    5.1900
    5.2000    5.2100    5.2200    5.2300    5.2400    5.2500    5.2600    5.2700
    5.2800    5.2900    5.3000    5.3100    5.3200    5.3300    5.3400    5.3500
    5.3600    5.3700    5.3800    5.3900    5.4000    5.4100    5.4200    5.4300
    5.4400    5.4500    5.4600    5.4700    5.4800    5.4900    5.5000    5.5100
    5.5200    5.5300    5.5400    5.5500    5.5600    5.5700    5.5800    5.5900
    5.6000    5.6100    5.6200    5.6300    5.6400    5.6500    5.6600    5.6700
    5.6800    5.6900    5.7000    5.7100    5.7200    5.7300    5.7400    5.7500
    5.7600    5.7700    5.7800    5.7900    5.8000    5.8100    5.8200    5.8300
    5.8400    5.8500    5.8600    5.8700    5.8800    5.8900    5.9000    5.9100
    5.9200    5.9300    5.9400    5.9500    5.9600    5.9700    5.9800    5.9900
    6.0000    6.0100
   </PP_R>
   <PP_RAB type="real"  size=" 602" columns="8">
    0.0100    0.0100    0.0100    0.0100    0.0100    0.0100    0.0100    0.0100
    0.0100    0.0100    0.0100    0.0100    0.0100    0.0100    0.0100    0.0100
    0.0100    0.0100    0.0100    0.0100    0.0100    0.0100    0.0100    0.0100
    0.0100    0.0100    0.0100    0.0100    0.0100    0.0100    0.0100    0.0100
    0.0100    0.0100    0.0100    0.0100    0.0100    0.0100    0.0100    0.0100
    0.0100    0.0100    0.0100    0.0100    0.0100    0.0100    0.0100    0.0100
    0.0100    0.0100    0.0100    0.0100    0.0100    0.0100    0.0100    0.0100
    0.0100    0.0100    0.0100    0.0100    0.0100    0.0100    0.0100    0.0100
    0.0100    0.0100    0.0100    0.0100    0.0100    0.0100    0.0100    0.0100
    0.0100    0.0100    0.0100    0.0100    0.0100    0.0100    0.0100    0.0100
    0.0100    0.0100    0.0100    0.0100    0.0100    0.0100    0.0100    0.0100
    0.0100    0.0100    0.0100    0.0100    0.0100    0.0100    0.0100    0.0100
    0.0100    0.0100    0.0100    0.0100    0.0100    0.0100    0.0100    0.0100
    0.0100    0.0100    0.0100    0.0100    0.0100    0.0100    0.0100    0.0100
    0.0100    0.0100    0.0100    0.0100    0.0100    0.0100    0.0100    0.0100
    0.0100    0.0100    0.0100    0.0100    0.0100    0.0100    0.0100    0.0100
    0.0100    0.0100    0.0100    0.0100    0.0100    0.0100    0.0100    0.0100
    0.0100    0.0100    0.0100    0.0100    0.0100    0.0100    0.0100    0.0100
    0.0100    0.0100    0.0100    0.0100    0.0100    0.0100    0.0100    0.0100
    0.0100    0.0100    0.0100    0.0100    0.0100    0.0100    0.0100    0.0100
    0.0100    0.0100    0.0100    0.0100    0.0100    0.0100    0.0100    0.0100
    0.0100    0.0100    0.0100    0.0100    0.0100    0.0100    0.0100    0.0100
    0.0100    0.0100    0.0100    0.0100    0.0100    0.0100    0.0100    0.0100
    0.0100    0.0100    0.0100    0.0100    0.0100    0.0100    0.0100    0.0100
    0.0100    0.0100    0.0100    0.0100    0.0100    0.0100    0.0100    0.0100
    0.0100    0.0100    0.0100    0.0100    0.0100    0.0100    0.0100    0.0100
    0.0100    0.0100    0.0100    0.0100    0.0100    0.0100    0.0100    0.0100
    0.0100    0.0100    0.0100    0.0100    0.0100    0.0100    0.0100    0.0100
    0.0100    0.0100    0.0100    0.0100    0.0100    0.0100    0.0100    0.0100
    0.0100    0.0100    0.0100    0.0100    0.0100    0.0100    0.0100    0.0100
    0.0100    0.0100    0.0100    0.0100    0.0100    0.0100    0.0100    0.0100
    0.0100    0.0100    0.0100    0.0100    0.0100    0.0100    0.0100    0.0100
    0.0100    0.0100    0.0100    0.0100    0.0100    0.0100    0.0100    0.0100
    0.0100    0.0100    0.0100    0.0100    0.0100    0.0100    0.0100    0.0100
    0.0100    0.0100    0.0100    0.0100    0.0100    0.0100    0.0100    0.0100
    0.0100    0.0100    0.0100    0.0100    0.0100    0.0100    0.0100    0.0100
    0.0100    0.0100    0.0100    0.0100    0.0100    0.0100    0.0100    0.0100
    0.0100    0.0100    0.0100    0.0100    0.0100    0.0100    0.0100    0.0100
    0.0100    0.0100    0.0100    0.0100    0.0100    0.0100    0.0100    0.0100
    0.0100    0.0100    0.0100    0.0100    0.0100    0.0100    0.0100    0.0100
    0.0100    0.0100    0.0100    0.0100    0.0100    0.0100    0.0100    0.0100
    0.0100    0.0100    0.0100    0.0100    0.0100    0.0100    0.0100    0.0100
    0.0100    0.0100    0.0100    0.0100    0.0100    0.0100    0.0100    0.0100
    0.0100    0.0100    0.0100    0.0100    0.0100    0.0100    0.0100    0.0100
    0.0100    0.0100    0.0100    0.0100    0.0100    0.0100    0.0100    0.0100
    0.0100    0.0100    0.0100    0.0100    0.0100    0.0100    0.0100    0.0100
    0.0100    0.0100    0.0100    0.0100    0.0100    0.0100    0.0100    0.0100
    0.0100    0.0100    0.0100    0.0100    0.0100    0.0100    0.0100    0.0100
    0.0100    0.0100    0.0100    0.0100    0.0100    0.0100    0.0100    0.0100
    0.0100    0.0100    0.0100    0.0100    0.0100    0.0100    0.0100    0.0100
    0.0100    0.0100    0.0100    0.0100    0.0100    0.0100    0.0100    0.0100
    0.0100    0.0100    0.0100    0.0100    0.0100    0.0100    0.0100    0.0100
    0.0100    0.0100    0.0100    0.0100    0.0100    0.0100    0.0100    0.0100
    0.0100    0.0100    0.0100    0.0100    0.0100    0.0100    0.0100    0.0100
    0.0100    0.0100    0.0100    0.0100    0.0100    0.0100    0.0100    0.0100
    0.0100    0.0100    0.0100    0.0100    0.0100    0.0100    0.0100    0.0100
    0.0100    0.0100    0.0100    0.0100    0.0100    0.0100    0.0100    0.0100
    0.0100    0.0100    0.0100    0.0100    0.0100    0.0100    0.0100    0.0100
    0.0100    0.0100    0.0100    0.0100    0.0100    0.0100    0.0100    0.0100
    0.0100    0.0100    0.0100    0.0100    0.0100    0.0100    0.0100    0.0100
    0.0100    0.0100    0.0100    0.0100    0.0100    0.0100    0.0100    0.0100
    0.0100    0.0100    0.0100    0.0100    0.0100    0.0100    0.0100    0.0100
    0.0100    0.0100    0.0100    0.0100    0.0100    0.0100    0.0100    0.0100
    0.0100    0.0100    0.0100    0.0100    0.0100    0.0100    0.0100    0.0100
    0.0100    0.0100    0.0100    0.0100    0.0100    0.0100    0.0100    0.0100
    0.0100    0.0100    0.0100    0.0100    0.0100    0.0100    0.0100    0.0100
    0.0100    0.0100    0.0100    0.0100    0.0100    0.0100    0.0100    0.0100
    0.0100    0.0100    0.0100    0.0100    0.0100    0.0100    0.0100    0.0100
    0.0100    0.0100    0.0100    0.0100    0.0100    0.0100    0.0100    0.0100
    0.0100    0.0100    0.0100    0.0100    0.0100    0.0100    0.0100    0.0100
    0.0100    0.0100    0.0100    0.0100    0.0100    0.0100    0.0100    0.0100
    0.0100    0.0100    0.0100    0.0100    0.0100    0.0100    0.0100    0.0100
    0.0100    0.0100    0.0100    0.0100    0.0100    0.0100    0.0100    0.0100
    0.0100    0.0100    0.0100    0.0100    0.0100    0.0100    0.0100    0.0100
    0.0100    0.0100    0.0100    0.0100    0.0100    0.0100    0.0100    0.0100
    0.0100    0.0100
   </PP_RAB>
 </PP_MESH>
  <PP_LOCAL type="real"  size=" 602" columns="4">
   -5.5428808899E+01   -5.5432060240E+01   -5.5443353054E+01   -5.5460388504E+01
   -5.5480867756E+01   -5.5502204835E+01   -5.5521922822E+01   -5.5537944497E+01
   -5.5548744239E+01   -5.5553373845E+01   -5.5551400177E+01   -5.5542797245E+01
   -5.5527827089E+01   -5.5506931271E+01   -5.5480643352E+01   -5.5449524684E+01
   -5.5414121320E+01   -5.5374937914E+01   -5.5332424157E+01   -5.5286969828E+01
   -5.5238905305E+01   -5.5188505303E+01   -5.5135994158E+01   -5.5081551726E+01
   -5.5025319199E+01   -5.4967404573E+01   -5.4907887522E+01   -5.4846823746E+01
   -5.4784248692E+01   -5.4720180822E+01   -5.4654624418E+01   -5.4587572015E+01
   -5.4519006504E+01   -5.4448903005E+01   -5.4377230496E+01   -5.4303953244E+01
   -5.4229032110E+01   -5.4152425676E+01   -5.4074091276E+01   -5.3993985896E+01
   -5.3912066980E+01   -5.3828293137E+01   -5.3742624757E+01   -5.3655024545E+01
   -5.3565457966E+01   -5.3473893615E+01   -5.3380303511E+01   -5.3284663331E+01
   -5.3186952550E+01   -5.3087154542E+01   -5.2985256580E+01   -5.2881249873E+01
   -5.2775129458E+01   -5.2666894049E+01   -5.2556545982E+01   -5.2444090937E+01
   -5.2329537782E+01   -5.2212898334E+01   -5.2094187108E+01   -5.1973421064E+01
   -5.1850619366E+01   -5.1725803054E+01   -5.1598994867E+01   -5.1470218887E+01
   -5.1339500322E+01   -5.1206865241E+01   -5.1072340294E+01   -5.0935952476E+01
   -5.0797728877E+01   -5.0657696431E+01   -5.0515881684E+01   -5.0372310574E+01
   -5.0227008159E+01   -5.0079998422E+01   -4.9931304037E+01   -4.9780946150E+01
   -4.9628944156E+01   -4.9475315483E+01   -4.9320075398E+01   -4.9163236762E+01
   -4.9004809859E+01   -4.8844802228E+01   -4.8683218500E+01   -4.8520060267E+01
   -4.8355325989E+01   -4.8189010945E+01   -4.8021107241E+01   -4.7851603877E+01
   -4.7680486898E+01   -4.7507739625E+01   -4.7333342977E+01   -4.7157275900E+01
   -4.6979515873E+01   -4.6800039533E+01   -4.6618823438E+01   -4.6435844863E+01
   -4.6251082697E+01   -4.6064518375E+01   -4.5876136850E+01   -4.5685927554E+01
   -4.5493885037E+01   -4.5300010518E+01   -4.5104312331E+01   -4.4906806476E+01
   -4.4707517171E+01   -4.4506477069E+01   -4.4303727111E+01   -4.4099318189E+01
   -4.3893309082E+01   -4.3685766590E+01   -4.3476764614E+01   -4.3266384594E+01
   -4.3054714281E+01   -4.2841846208E+01   -4.2627877005E+01   -4.2412907223E+01
   -4.2197039931E+01   -4.1980379528E+01   -4.1763031412E+01   -4.1545101182E+01
   -4.1326693627E+01   -4.1107912696E+01   -4.0888860787E+01   -4.0669637820E+01
   -4.0450341905E+01   -4.0231068933E+01   -4.0011911103E+01   -3.9792958640E+01
   -3.9574299276E+01   -3.9356016623E+01   -3.9138192588E+01   -3.8920906246E+01
   -3.8704232862E+01   -3.8488246394E+01   -3.8273017320E+01   -3.8058613155E+01
   -3.7845100472E+01   -3.7632541232E+01   -3.7420996071E+01   -3.7210523451E+01
   -3.7001177668E+01   -3.6793012679E+01   -3.6586077752E+01   -3.6380420429E+01
   -3.6176086108E+01   -3.5973115155E+01   -3.5771548408E+01   -3.5571419671E+01
   -3.5372762647E+01   -3.5175606125E+01   -3.4979975270E+01   -3.4785893571E+01
   -3.4593376963E+01   -3.4402443192E+01   -3.4213099133E+01   -3.4025354454E+01
   -3.3839208741E+01   -3.3654662264E+01   -3.3471707705E+01   -3.3290335947E+01
   -3.3110532905E+01   -3.2932280830E+01   -3.2755559251E+01   -3.2580343192E+01
   -3.2406606526E+01   -3.2234319056E+01   -3.2063450167E+01   -3.1893966872E+01
   -3.1725835723E+01   -3.1559023541E+01   -3.1393496150E+01   -3.1229222602E+01
   -3.1066170435E+01   -3.0904312866E+01   -3.0743621693E+01   -3.0584075509E+01
   -3.0425652694E+01   -3.0268337674E+01   -3.0112117097E+01   -2.9956981072E+01
   -2.9802925179E+01   -2.9649944754E+01   -2.9498043632E+01   -2.9347221909E+01
   -2.9197489849E+01   -2.9048851344E+01   -2.8901321802E+01   -2.8754911165E+01
   -2.8609636403E+01   -2.8465513820E+01   -2.8322560571E+01   -2.8180795219E+01
   -2.8040235476E+01   -2.7900896846E+01   -2.7762798680E+01   -2.7625949814E+01
   -2.7490366256E+01   -2.7356052956E+01   -2.7223015705E+01   -2.7091258400E+01
   -2.6960770937E+01   -2.6831557077E+01   -2.6703593156E+01   -2.6576868856E+01
   -2.6451360838E+01   -2.6327039233E+01   -2.6203881406E+01   -2.6081845305E+01
   -2.5960898403E+01   -2.5841000526E+01   -2.5722109906E+01   -2.5604186099E+01
   -2.5487190498E+01   -2.5371079534E+01   -2.5255820386E+01   -2.5141380804E+01
   -2.5027722002E+01   -2.4914830074E+01   -2.4802675403E+01   -2.4691243197E+01
   -2.4580528521E+01   -2.4470510624E+01   -2.4361198128E+01   -2.4252589080E+01
   -2.4144682590E+01   -2.4037491312E+01   -2.3931020064E+01   -2.3825278950E+01
   -2.3720279786E+01   -2.3616033278E+01   -2.3512549284E+01   -2.3409838525E+01
   -2.3307912478E+01   -2.3206776091E+01   -2.3106438850E+01   -2.3006907317E+01
   -2.2908182322E+01   -2.2810270508E+01   -2.2713171969E+01   -2.2616884433E+01
   -2.2521410879E+01   -2.2426746071E+01   -2.2332885324E+01   -2.2239827824E+01
   -2.2147565049E+01   -2.2056090488E+01   -2.1965399992E+01   -2.1875483631E+01
   -2.1786333628E+01   -2.1697943108E+01   -2.1610302150E+01   -2.1523402013E+01
   -2.1437234289E+01   -2.1351789343E+01   -2.1267058004E+01   -2.1183031116E+01
   -2.1099699479E+01   -2.1017053901E+01   -2.0935084927E+01   -2.0853783872E+01
   -2.0773141763E+01   -2.0693149170E+01   -2.0613797865E+01   -2.0535079238E+01
   -2.0456984151E+01   -2.0379504676E+01   -2.0302632678E+01   -2.0226359459E+01
   -2.0150677273E+01   -2.0075578526E+01   -2.0001055047E+01   -1.9927099178E+01
   -1.9853703910E+01   -1.9780861666E+01   -1.9708564784E+01   -1.9636806874E+01
   -1.9565580990E+01   -1.9494879465E+01   -1.9424696471E+01   -1.9355025536E+01
   -1.9285859634E+01   -1.9217192798E+01   -1.9149019265E+01   -1.9081332732E+01
   -1.9014126972E+01   -1.8947396947E+01   -1.8881137059E+01   -1.8815340991E+01
   -1.8750004170E+01   -1.8685121508E+01   -1.8620687455E+01   -1.8556697000E+01
   -1.8493145807E+01   -1.8430029120E+01   -1.8367341494E+01   -1.8305079234E+01
   -1.8243237955E+01   -1.8181812987E+01   -1.8120800067E+01   -1.8060195402E+01
   -1.7999994895E+01   -1.7940194085E+01   -1.7880789393E+01   -1.7821776951E+01
   -1.7763152737E+01   -1.7704912784E+01   -1.7647053616E+01   -1.7589571508E+01
   -1.7532462473E+01   -1.7475723045E+01   -1.7419349801E+01   -1.7363339195E+01
   -1.7307687332E+01   -1.7252391175E+01   -1.7197447344E+01   -1.7142852360E+01
   -1.7088602716E+01   -1.7034695451E+01   -1.6981127339E+01   -1.6927894984E+01
   -1.6874995224E+01   -1.6822425168E+01   -1.6770181740E+01   -1.6718261640E+01
   -1.6666661998E+01   -1.6615379999E+01   -1.6564412714E+01   -1.6513756949E+01
   -1.6463410073E+01   -1.6413369362E+01   -1.6363632022E+01   -1.6314194976E+01
   -1.6265055787E+01   -1.6216211829E+01   -1.6167660440E+01   -1.6119398668E+01
   -1.6071424223E+01   -1.6023734591E+01   -1.5976327232E+01   -1.5929199329E+01
   -1.5882348698E+01   -1.5835772945E+01   -1.5789469649E+01   -1.5743436132E+01
   -1.5697670279E+01   -1.5652169826E+01   -1.5606932465E+01   -1.5561955666E+01
   -1.5517237344E+01   -1.5472775374E+01   -1.5428567556E+01   -1.5384611514E+01
   -1.5340905161E+01   -1.5297446518E+01   -1.5254233488E+01   -1.5211263858E+01
   -1.5168535505E+01   -1.5126046603E+01   -1.5083795151E+01   -1.5041779111E+01
   -1.4999996294E+01   -1.4958445030E+01   -1.4917123410E+01   -1.4876029527E+01
   -1.4835161252E+01   -1.4794516923E+01   -1.4754094770E+01   -1.4713892975E+01
   -1.4673909592E+01   -1.4634142825E+01   -1.4594591083E+01   -1.4555252632E+01
   -1.4516125722E+01   -1.4477208400E+01   -1.4438499252E+01   -1.4399996624E+01
   -1.4361698863E+01   -1.4323604165E+01   -1.4285710968E+01   -1.4248017801E+01
   -1.4210523087E+01   -1.4173225231E+01   -1.4136122458E+01   -1.4099213488E+01
   -1.4062496819E+01   -1.4025970948E+01   -1.3989634249E+01   -1.3953485257E+01
   -1.3917522659E+01   -1.3881745023E+01   -1.3846150917E+01   -1.3810738702E+01
   -1.3775507181E+01   -1.3740455015E+01   -1.3705580840E+01   -1.3670883242E+01
   -1.3636360731E+01   -1.3602012189E+01   -1.3567836312E+01   -1.3533831798E+01
   -1.3499997241E+01   -1.3466331348E+01   -1.3432832999E+01   -1.3399500953E+01
   -1.3366333968E+01   -1.3333330656E+01   -1.3300489886E+01   -1.3267810548E+01
   -1.3235291459E+01   -1.3202931435E+01   -1.3170729117E+01   -1.3138683501E+01
   -1.3106793498E+01   -1.3075057980E+01   -1.3043475817E+01   -1.3012045694E+01
   -1.2980766696E+01   -1.2949637768E+01   -1.2918657834E+01   -1.2887825817E+01
   -1.2857140453E+01   -1.2826600887E+01   -1.2796206107E+01   -1.2765955087E+01
   -1.2735846802E+01   -1.2705880045E+01   -1.2676053995E+01   -1.2646367692E+01
   -1.2616820158E+01   -1.2587410415E+01   -1.2558137327E+01   -1.2529000073E+01
   -1.2499997759E+01   -1.2471129451E+01   -1.2442394217E+01   -1.2413790997E+01
   -1.2385318951E+01   -1.2356977252E+01   -1.2328765014E+01   -1.2300681345E+01
   -1.2272725272E+01   -1.2244895907E+01   -1.2217192506E+01   -1.2189614220E+01
   -1.2162160201E+01   -1.2134829569E+01   -1.2107621368E+01   -1.2080534938E+01
   -1.2053569471E+01   -1.2026724159E+01   -1.1999998193E+01   -1.1973390617E+01
   -1.1946900773E+01   -1.1920527921E+01   -1.1894271290E+01   -1.1868130108E+01
   -1.1842103529E+01   -1.1816190777E+01   -1.1790391214E+01   -1.1764704107E+01
   -1.1739128721E+01   -1.1713664321E+01   -1.1688310009E+01   -1.1663065243E+01
   -1.1637929327E+01   -1.1612901560E+01   -1.1587981242E+01   -1.1563167598E+01
   -1.1538459923E+01   -1.1513857643E+01   -1.1489360090E+01   -1.1464966595E+01
   -1.1440676492E+01   -1.1416488977E+01   -1.1392403518E+01   -1.1368419503E+01
   -1.1344536297E+01   -1.1320753263E+01   -1.1297069736E+01   -1.1273484983E+01
   -1.1249998527E+01   -1.1226609760E+01   -1.1203318075E+01   -1.1180122867E+01
   -1.1157023458E+01   -1.1134019236E+01   -1.1111109710E+01   -1.1088294301E+01
   -1.1065572429E+01   -1.1042943517E+01   -1.1020406888E+01   -1.0997962023E+01
   -1.0975608426E+01   -1.0953345544E+01   -1.0931172826E+01   -1.0909089720E+01
   -1.0887095561E+01   -1.0865189895E+01   -1.0843372232E+01   -1.0821642044E+01
   -1.0799998807E+01   -1.0778441994E+01   -1.0756970960E+01   -1.0735585293E+01
   -1.0714284516E+01   -1.0693068128E+01   -1.0671935628E+01   -1.0650886514E+01
   -1.0629920170E+01   -1.0609036201E+01   -1.0588234156E+01   -1.0567513556E+01
   -1.0546873924E+01   -1.0526314780E+01   -1.0505835548E+01   -1.0485435827E+01
   -1.0465115198E+01   -1.0444873206E+01   -1.0424709396E+01   -1.0404623311E+01
   -1.0384614419E+01   -1.0364682294E+01   -1.0344826559E+01   -1.0325046781E+01
   -1.0305342524E+01   -1.0285713354E+01   -1.0266158793E+01   -1.0246678368E+01
   -1.0227271753E+01   -1.0207938533E+01   -1.0188678295E+01   -1.0169490623E+01
   -1.0150375100E+01   -1.0131331193E+01   -1.0112358628E+01   -1.0093457012E+01
   -1.0074625949E+01   -1.0055865043E+01   -1.0037173901E+01   -1.0018552047E+01
   -9.9999991311E+00   -9.9815148233E+00   -9.9630987467E+00   -9.9447505245E+00
   -9.9264697803E+00   -9.9082561147E+00   -9.8901090772E+00   -9.8720284081E+00
   -9.8540137482E+00   -9.8360647385E+00   -9.8181810199E+00   -9.8003622333E+00
   -9.7826079426E+00   -9.7649178334E+00   -9.7472916061E+00   -9.7297289184E+00
   -9.7122294279E+00   -9.6947927922E+00   -9.6774186658E+00   -9.6601065978E+00
   -9.6428563737E+00   -9.6256676670E+00   -9.6085401514E+00   -9.5914735005E+00
   -9.5744673879E+00   -9.5575214490E+00   -9.5406353244E+00   -9.5238087788E+00
   -9.5070415010E+00   -9.4903331798E+00   -9.4736835041E+00   -9.4570921626E+00
   -9.4405587821E+00   -9.4240830716E+00   -9.4076647841E+00   -9.3913036228E+00
   -9.3749992910E+00   -9.3587514921E+00   -9.3425599294E+00   -9.3264242301E+00
   -9.3103441501E+00   -9.2943194394E+00   -9.2783498151E+00   -9.2624349943E+00
   -9.2465746942E+00   -9.2307686319E+00   -9.2150164441E+00   -9.1993179124E+00
   -9.1836727927E+00   -9.1680808155E+00   -9.1525417109E+00   -9.1370552095E+00
   -9.1216210413E+00   -9.1062388606E+00   -9.0909084553E+00   -9.0756295959E+00
   -9.0604020251E+00   -9.0452254859E+00   -9.0300997211E+00   -9.0150244738E+00
   -8.9999994227E+00   -8.9850243444E+00
  </PP_LOCAL>
 <PP_NONLOCAL>
   <PP_BETA.1
       type="real"
       size=" 602"
       columns="4"
       index="1"
       angular_momentum="0"
       cutoff_radius_index=" 300"
       cutoff_radius="    2.9900000000E+00" >
    0.0000000000E+00    3.1078423644E-02    6.2072099961E-02    9.2896476130E-02
    1.2346738825E-01    1.5370125553E-01    1.8351527419E-01    2.1282761090E-01
    2.4155759567E-01    2.6962591406E-01    2.9695479843E-01    3.2346821824E-01
    3.4909206907E-01    3.7375436010E-01    3.9738539995E-01    4.1991798046E-01
    4.4128755821E-01    4.6143243333E-01    4.8029392541E-01    4.9781654586E-01
    5.1394816680E-01    5.2864018511E-01    5.4184768243E-01    5.5352957937E-01
    5.6364878449E-01    5.7217233627E-01    5.7907153907E-01    5.8432209051E-01
    5.8790420225E-01    5.8980271078E-01    5.9000717934E-01    5.8851198988E-01
    5.8531642532E-01    5.8042473886E-01    5.7384621174E-01    5.6559520191E-01
    5.5569117332E-01    5.4415871812E-01    5.3102756065E-01    5.1633254748E-01
    5.0011362308E-01    4.8241578991E-01    4.6328905160E-01    4.4278834018E-01
    4.2097342678E-01    3.9790881562E-01    3.7366362074E-01    3.4831142459E-01
    3.2193012060E-01    2.9460173806E-01    2.6641225532E-01    2.3745138062E-01
    2.0781232944E-01    1.7759160123E-01    1.4688868432E-01    1.1580582119E-01
    8.4447698871E-02    5.2921150826E-02    2.1334848871E-02   -1.0201026662E-02