<UPF version="2.0.1">
  <PP_INFO>

 V_ONCV_PBE_FR-1.0.upf

 This pseudopotential file has been produced using the code
 ONCVPSP  (Optimized Norm-Conservinng Vanderbilt PSeudopotential)
 fully-relativistic version 2.1.1, 03/26/2014 by D. R. Hamann
 The code is available through a link at URL www.mat-simresearch.com.
 Documentation with the package provides a full description of the
 input data below.

 While it is not required under the terms of the GNU GPL, it is
 suggested that you cite D. R. Hamann, Phys. Rev. B 88, 085117 (2013)
 in any publication using these pseudopotentials.

 -----

 This pseudopotential was produced with the SG15 1.0 and/or 1.1
 parameter sets, the Schlipf-Gygi norm-conserving pseudopotential
 library. For details of the construction and testing of the
 pseudopotential please refer to:

 M. Schlipf, F. Gygi, Comp. Phys. Comm. 196, 36 (2015)
 http://dx.doi.org/10.1016/j.cpc.2015.05.011

 The above authors kindly ask that you include this reference in all
 publications associated to this pseudopotential.

 Please note this fully-relativistic version does not employ the
 above self-consistent procedure at the fully-relativistic level.

 -----

 This pseudopotential was produced by Peter Scherpelz for the purpose
 of performing GW calculations with spin-orbit-coupling. Please see
 the publication:

 P. Scherpelz, M. Govoni, I. Hamada, G. Galli; J. Chem. Theory Comput. (2016)
 http://dx.doi.org/10.1021/acs.jctc.6b00114

 If you use these pseudopotentials in your work, we also kindly ask
 that you cite the above publication.

 -----

 This work is licensed under the Creative Commons Attribution-ShareAlike 
 4.0 International License. To view a copy of this license, visit 
 http://creativecommons.org/licenses/by-sa/4.0/ or send a letter to 
 Creative Commons, PO Box 1866, Mountain View, CA 94042, USA.

 The SG15 library is Copyright 2015 The Regents of the University of
 California.  Further modifications of these files are Copyright 2016
 Peter Scherpelz.

    <PP_INPUTFILE>
# ATOM AND REFERENCE CONFIGURATION
# atsym  z    nc    nv    iexc   psfile
  V 23.00     3     4     4      upf
#
#   n    l    f        energy (Ha)
    1    0    2.00
    2    0    2.00
    2    1    6.00
    3    0    2.00
    3    1    6.00
    4    0    2.00
    3    2    3.00
#
# PSEUDOPOTENTIAL AND OPTIMIZATION
# lmax
    2
#
#   l,   rc,     ep,   ncon, nbas, qcut
    0    1.73   -2.58    5    8    6.73
    1    1.97   -1.61    5    8    8.53
    2    2.02   -0.19    5    8    7.58
#
# LOCAL POTENTIAL
# lloc, lpopt,  rc(5),   dvloc0
    4    5      1.71       0.00
#
# VANDERBILT-KLEINMAN-BYLANDER PROJECTORs
# l, nproj, debl
    0    2    2.4078
    1    2    2.2941
    2    2    1.1051
#
# MODEL CORE CHARGE
# icmod, fcfact
    0    0.00
#
# LOG DERIVATIVE ANALYSIS
# epsh1, epsh2, depsh
   -5.00    3.00    0.02
#
# OUTPUT GRID
# rlmax, drl
    6.00    0.01
#
# TEST CONFIGURATIONS
# ncnf
    0
# nvcnf
#   n    l    f
    </PP_INPUTFILE>
  </PP_INFO>
  <!--                               -->
  <!-- END OF HUMAN READABLE SECTION -->
  <!--                               -->
    <PP_HEADER
       generated="Generated using ONCVPSP code by D. R. Hamann"
       author="anonymous"
       date="150703"
       comment=""
       element="V "
       pseudo_type="NC"
       relativistic="full"
       is_ultrasoft="F"
       is_paw="F"
       is_coulomb="F"
       has_so="T"
       has_wfc="F"
       has_gipaw="F"
       core_correction="F"
       functional="PBE"
       z_valence="   13.00"
       total_psenergy="  -7.08030118385E+01"
       rho_cutoff="   6.01000000000E+00"
       l_max="2"
       l_local="-1"
       mesh_size="   602"
       number_of_wfc="0"
       number_of_proj="10"/>
 <PP_MESH>
   <PP_R type="real"  size=" 602" columns="8">
    0.0000    0.0100    0.0200    0.0300    0.0400    0.0500    0.0600    0.0700
    0.0800    0.0900    0.1000    0.1100    0.1200    0.1300    0.1400    0.1500
    0.1600    0.1700    0.1800    0.1900    0.2000    0.2100    0.2200    0.2300
    0.2400    0.2500    0.2600    0.2700    0.2800    0.2900    0.3000    0.3100
    0.3200    0.3300    0.3400    0.3500    0.3600    0.3700    0.3800    0.3900
    0.4000    0.4100    0.4200    0.4300    0.4400    0.4500    0.4600    0.4700
    0.4800    0.4900    0.5000    0.5100    0.5200    0.5300    0.5400    0.5500
    0.5600    0.5700    0.5800    0.5900    0.6000    0.6100    0.6200    0.6300
    0.6400    0.6500    0.6600    0.6700    0.6800    0.6900    0.7000    0.7100
    0.7200    0.7300    0.7400    0.7500    0.7600    0.7700    0.7800    0.7900
    0.8000    0.8100    0.8200    0.8300    0.8400    0.8500    0.8600    0.8700
    0.8800    0.8900    0.9000    0.9100    0.9200    0.9300    0.9400    0.9500
    0.9600    0.9700    0.9800    0.9900    1.0000    1.0100    1.0200    1.0300
    1.0400    1.0500    1.0600    1.0700    1.0800    1.0900    1.1000    1.1100
    1.1200    1.1300    1.1400    1.1500    1.1600    1.1700    1.1800    1.1900
    1.2000    1.2100    1.2200    1.2300    1.2400    1.2500    1.2600    1.2700
    1.2800    1.2900    1.3000    1.3100    1.3200    1.3300    1.3400    1.3500
    1.3600    1.3700    1.3800    1.3900    1.4000    1.4100    1.4200    1.4300
    1.4400    1.4500    1.4600    1.4700    1.4800    1.4900    1.5000    1.5100
    1.5200    1.5300    1.5400    1.5500    1.5600    1.5700    1.5800    1.5900
    1.6000    1.6100    1.6200    1.6300    1.6400    1.6500    1.6600    1.6700
    1.6800    1.6900    1.7000    1.7100    1.7200    1.7300    1.7400    1.7500
    1.7600    1.7700    1.7800    1.7900    1.8000    1.8100    1.8200    1.8300
    1.8400    1.8500    1.8600    1.8700    1.8800    1.8900    1.9000    1.9100
    1.9200    1.9300    1.9400    1.9500    1.9600    1.9700    1.9800    1.9900
    2.0000    2.0100    2.0200    2.0300    2.0400    2.0500    2.0600    2.0700
    2.0800    2.0900    2.1000    2.1100    2.1200    2.1300    2.1400    2.1500
    2.1600    2.1700    2.1800    2.1900    2.2000    2.2100    2.2200    2.2300
    2.2400    2.2500    2.2600    2.2700    2.2800    2.2900    2.3000    2.3100
    2.3200    2.3300    2.3400    2.3500    2.3600    2.3700    2.3800    2.3900
    2.4000    2.4100    2.4200    2.4300    2.4400    2.4500    2.4600    2.4700
    2.4800    2.4900    2.5000    2.5100    2.5200    2.5300    2.5400    2.5500
    2.5600    2.5700    2.5800    2.5900    2.6000    2.6100    2.6200    2.6300
    2.6400    2.6500    2.6600    2.6700    2.6800    2.6900    2.7000    2.7100
    2.7200    2.7300    2.7400    2.7500    2.7600    2.7700    2.7800    2.7900
    2.8000    2.8100    2.8200    2.8300    2.8400    2.8500    2.8600    2.8700
    2.8800    2.8900    2.9000    2.9100    2.9200    2.9300    2.9400    2.9500
    2.9600    2.9700    2.9800    2.9900    3.0000    3.0100    3.0200    3.0300
    3.0400    3.0500    3.0600    3.0700    3.0800    3.0900    3.1000    3.1100
    3.1200    3.1300    3.1400    3.1500    3.1600    3.1700    3.1800    3.1900
    3.2000    3.2100    3.2200    3.2300    3.2400    3.2500    3.2600    3.2700
    3.2800    3.2900    3.3000    3.3100    3.3200    3.3300    3.3400    3.3500
    3.3600    3.3700    3.3800    3.3900    3.4000    3.4100    3.4200    3.4300
    3.4400    3.4500    3.4600    3.4700    3.4800    3.4900    3.5000    3.5100
    3.5200    3.5300    3.5400    3.5500    3.5600    3.5700    3.5800    3.5900
    3.6000    3.6100    3.6200    3.6300    3.6400    3.6500    3.6600    3.6700
    3.6800    3.6900    3.7000    3.7100    3.7200    3.7300    3.7400    3.7500
    3.7600    3.7700    3.7800    3.7900    3.8000    3.8100    3.8200    3.8300
    3.8400    3.8500    3.8600    3.8700    3.8800    3.8900    3.9000    3.9100
    3.9200    3.9300    3.9400    3.9500    3.9600    3.9700    3.9800    3.9900
    4.0000    4.0100    4.0200    4.0300    4.0400    4.0500    4.0600    4.0700
    4.0800    4.0900    4.1000    4.1100    4.1200    4.1300    4.1400    4.1500
    4.1600    4.1700    4.1800    4.1900    4.2000    4.2100    4.2200    4.2300
    4.2400    4.2500    4.2600    4.2700    4.2800    4.2900    4.3000    4.3100
    4.3200    4.3300    4.3400    4.3500    4.3600    4.3700    4.3800    4.3900
    4.4000    4.4100    4.4200    4.4300    4.4400    4.4500    4.4600    4.4700
    4.4800    4.4900    4.5000    4.5100    4.5200    4.5300    4.5400    4.5500
    4.5600    4.5700    4.5800    4.5900    4.6000    4.6100    4.6200    4.6300
    4.6400    4.6500    4.6600    4.6700    4.6800    4.6900    4.7000    4.7100
    4.7200    4.7300    4.7400    4.7500    4.7600    4.7700    4.7800    4.7900
    4.8000    4.8100    4.8200    4.8300    4.8400    4.8500    4.8600    4.8700
    4.8800    4.8900    4.9000    4.9100    4.9200    4.9300    4.9400    4.9500
    4.9600    4.9700    4.9800    4.9900    5.0000    5.0100    5.0200    5.0300
    5.0400    5.0500    5.0600    5.0700    5.0800    5.0900    5.1000    5.1100
    5.1200    5.1300    5.1400    5.1500    5.1600    5.1700    5.1800    5.1900
    5.2000    5.2100    5.2200    5.2300    5.2400    5.2500    5.2600    5.2700
    5.2800    5.2900    5.3000    5.3100    5.3200    5.3300    5.3400    5.3500
    5.3600    5.3700    5.3800    5.3900    5.4000    5.4100    5.4200    5.4300
    5.4400    5.4500    5.4600    5.4700    5.4800    5.4900    5.5000    5.5100
    5.5200    5.5300    5.5400    5.5500    5.5600    5.5700    5.5800    5.5900
    5.6000    5.6100    5.6200    5.6300    5.6400    5.6500    5.6600    5.6700
    5.6800    5.6900    5.7000    5.7100    5.7200    5.7300    5.7400    5.7500
    5.7600    5.7700    5.7800    5.7900    5.8000    5.8100    5.8200    5.8300
    5.8400    5.8500    5.8600    5.8700    5.8800    5.8900    5.9000    5.9100
    5.9200    5.9300    5.9400    5.9500    5.9600    5.9700    5.9800    5.9900
    6.0000    6.0100
   </PP_R>
   <PP_RAB type="real"  size=" 602" columns="8">
    0.0100    0.0100    0.0100    0.0100    0.0100    0.0100    0.0100    0.0100
    0.0100    0.0100    0.0100    0.0100    0.0100    0.0100    0.0100    0.0100
    0.0100    0.0100    0.0100    0.0100    0.0100    0.0100    0.0100    0.0100
    0.0100    0.0100    0.0100    0.0100    0.0100    0.0100    0.0100    0.0100
    0.0100    0.0100    0.0100    0.0100    0.0100    0.0100    0.0100    0.0100
    0.0100    0.0100    0.0100    0.0100    0.0100    0.0100    0.0100    0.0100
    0.0100    0.0100    0.0100    0.0100    0.0100    0.0100    0.0100    0.0100
    0.0100    0.0100    0.0100    0.0100    0.0100    0.0100    0.0100    0.0100
    0.0100    0.0100    0.0100    0.0100    0.0100    0.0100    0.0100    0.0100
    0.0100    0.0100    0.0100    0.0100    0.0100    0.0100    0.0100    0.0100
    0.0100    0.0100    0.0100    0.0100    0.0100    0.0100    0.0100    0.0100
    0.0100    0.0100    0.0100    0.0100    0.0100    0.0100    0.0100    0.0100
    0.0100    0.0100    0.0100    0.0100    0.0100    0.0100    0.0100    0.0100
    0.0100    0.0100    0.0100    0.0100    0.0100    0.0100    0.0100    0.0100
    0.0100    0.0100    0.0100    0.0100    0.0100    0.0100    0.0100    0.0100
    0.0100    0.0100    0.0100    0.0100    0.0100    0.0100    0.0100    0.0100
    0.0100    0.0100    0.0100    0.0100    0.0100    0.0100    0.0100    0.0100
    0.0100    0.0100    0.0100    0.0100    0.0100    0.0100    0.0100    0.0100
    0.0100    0.0100    0.0100    0.0100    0.0100    0.0100    0.0100    0.0100
    0.0100    0.0100    0.0100    0.0100    0.0100    0.0100    0.0100    0.0100
    0.0100    0.0100    0.0100    0.0100    0.0100    0.0100    0.0100    0.0100
    0.0100    0.0100    0.0100    0.0100    0.0100    0.0100    0.0100    0.0100
    0.0100    0.0100    0.0100    0.0100    0.0100    0.0100    0.0100    0.0100
    0.0100    0.0100    0.0100    0.0100    0.0100    0.0100    0.0100    0.0100
    0.0100    0.0100    0.0100    0.0100    0.0100    0.0100    0.0100    0.0100
    0.0100    0.0100    0.0100    0.0100    0.0100    0.0100    0.0100    0.0100
    0.0100    0.0100    0.0100    0.0100    0.0100    0.0100    0.0100    0.0100
    0.0100    0.0100    0.0100    0.0100    0.0100    0.0100    0.0100    0.0100
    0.0100    0.0100    0.0100    0.0100    0.0100    0.0100    0.0100    0.0100
    0.0100    0.0100    0.0100    0.0100    0.0100    0.0100    0.0100    0.0100
    0.0100    0.0100    0.0100    0.0100    0.0100    0.0100    0.0100    0.0100
    0.0100    0.0100    0.0100    0.0100    0.0100    0.0100    0.0100    0.0100
    0.0100    0.0100    0.0100    0.0100    0.0100    0.0100    0.0100    0.0100
    0.0100    0.0100    0.0100    0.0100    0.0100    0.0100    0.0100    0.0100
    0.0100    0.0100    0.0100    0.0100    0.0100    0.0100    0.0100    0.0100
    0.0100    0.0100    0.0100    0.0100    0.0100    0.0100    0.0100    0.0100
    0.0100    0.0100    0.0100    0.0100    0.0100    0.0100    0.0100    0.0100
    0.0100    0.0100    0.0100    0.0100    0.0100    0.0100    0.0100    0.0100
    0.0100    0.0100    0.0100    0.0100    0.0100    0.0100    0.0100    0.0100
    0.0100    0.0100    0.0100    0.0100    0.0100    0.0100    0.0100    0.0100
    0.0100    0.0100    0.0100    0.0100    0.0100    0.0100    0.0100    0.0100
    0.0100    0.0100    0.0100    0.0100    0.0100    0.0100    0.0100    0.0100
    0.0100    0.0100    0.0100    0.0100    0.0100    0.0100    0.0100    0.0100
    0.0100    0.0100    0.0100    0.0100    0.0100    0.0100    0.0100    0.0100
    0.0100    0.0100    0.0100    0.0100    0.0100    0.0100    0.0100    0.0100
    0.0100    0.0100    0.0100    0.0100    0.0100    0.0100    0.0100    0.0100
    0.0100    0.0100    0.0100    0.0100    0.0100    0.0100    0.0100    0.0100
    0.0100    0.0100    0.0100    0.0100    0.0100    0.0100    0.0100    0.0100
    0.0100    0.0100    0.0100    0.0100    0.0100    0.0100    0.0100    0.0100
    0.0100    0.0100    0.0100    0.0100    0.0100    0.0100    0.0100    0.0100
    0.0100    0.0100    0.0100    0.0100    0.0100    0.0100    0.0100    0.0100
    0.0100    0.0100    0.0100    0.0100    0.0100    0.0100    0.0100    0.0100
    0.0100    0.0100    0.0100    0.0100    0.0100    0.0100    0.0100    0.0100
    0.0100    0.0100    0.0100    0.0100    0.0100    0.0100    0.0100    0.0100
    0.0100    0.0100    0.0100    0.0100    0.0100    0.0100    0.0100    0.0100
    0.0100    0.0100    0.0100    0.0100    0.0100    0.0100    0.0100    0.0100
    0.0100    0.0100    0.0100    0.0100    0.0100    0.0100    0.0100    0.0100
    0.0100    0.0100    0.0100    0.0100    0.0100    0.0100    0.0100    0.0100
    0.0100    0.0100    0.0100    0.0100    0.0100    0.0100    0.0100    0.0100
    0.0100    0.0100    0.0100    0.0100    0.0100    0.0100    0.0100    0.0100
    0.0100    0.0100    0.0100    0.0100    0.0100    0.0100    0.0100    0.0100
    0.0100    0.0100    0.0100    0.0100    0.0100    0.0100    0.0100    0.0100
    0.0100    0.0100    0.0100    0.0100    0.0100    0.0100    0.0100    0.0100
    0.0100    0.0100    0.0100    0.0100    0.0100    0.0100    0.0100    0.0100
    0.0100    0.0100    0.0100    0.0100    0.0100    0.0100    0.0100    0.0100
    0.0100    0.0100    0.0100    0.0100    0.0100    0.0100    0.0100    0.0100
    0.0100    0.0100    0.0100    0.0100    0.0100    0.0100    0.0100    0.0100
    0.0100    0.0100    0.0100    0.0100    0.0100    0.0100    0.0100    0.0100
    0.0100    0.0100    0.0100    0.0100    0.0100    0.0100    0.0100    0.0100
    0.0100    0.0100    0.0100    0.0100    0.0100    0.0100    0.0100    0.0100
    0.0100    0.0100    0.0100    0.0100    0.0100    0.0100    0.0100    0.0100
    0.0100    0.0100    0.0100    0.0100    0.0100    0.0100    0.0100    0.0100
    0.0100    0.0100    0.0100    0.0100    0.0100    0.0100    0.0100    0.0100
    0.0100    0.0100    0.0100    0.0100    0.0100    0.0100    0.0100    0.0100
    0.0100    0.0100    0.0100    0.0100    0.0100    0.0100    0.0100    0.0100
    0.0100    0.0100
   </PP_RAB>
 </PP_MESH>
  <PP_LOCAL type="real"  size=" 602" columns="4">
   -3.4795694704E+01   -3.4810468635E+01   -3.4857526059E+01   -3.4922740355E+01
   -3.4991984900E+01   -3.5053128686E+01   -3.5098329390E+01   -3.5124140325E+01
   -3.5130407003E+01   -3.5118910723E+01   -3.5092272087E+01   -3.5053245071E+01
   -3.5004342690E+01   -3.4947685779E+01   -3.4884979986E+01   -3.4817555350E+01
   -3.4746429384E+01   -3.4672372455E+01   -3.4595965999E+01   -3.4517650046E+01
   -3.4437760033E+01   -3.4356554239E+01   -3.4274233627E+01   -3.4190955911E+01
   -3.4106845319E+01   -3.4021999344E+01   -3.3936493398E+01   -3.3850384028E+01
   -3.3763711195E+01   -3.3676499958E+01   -3.3588761741E+01   -3.3500495348E+01
   -3.3411687806E+01   -3.3322315080E+01   -3.3232342758E+01   -3.3141726612E+01
   -3.3050413233E+01   -3.2958340562E+01   -3.2865438554E+01   -3.2771629838E+01
   -3.2676830448E+01   -3.2580950695E+01   -3.2483896139E+01   -3.2385568694E+01
   -3.2285867868E+01   -3.2184692146E+01   -3.2081940473E+01   -3.1977513825E+01
   -3.1871316873E+01   -3.1763259610E+01   -3.1653258944E+01   -3.1541240154E+01
   -3.1427138432E+01   -3.1310899824E+01   -3.1192482252E+01   -3.1071856302E+01
   -3.0949005226E+01   -3.0823925586E+01   -3.0696626358E+01   -3.0567129155E+01
   -3.0435466917E+01   -3.0301683382E+01   -3.0165831951E+01   -3.0027974261E+01
   -2.9888179449E+01   -2.9746522513E+01   -2.9603083182E+01   -2.9457944927E+01
   -2.9311193740E+01   -2.9162917200E+01   -2.9013203644E+01   -2.8862141433E+01
   -2.8709818325E+01   -2.8556320987E+01   -2.8401734613E+01   -2.8246142628E+01
   -2.8089626493E+01   -2.7932265548E+01   -2.7774136930E+01   -2.7615315584E+01
   -2.7455874260E+01   -2.7295883552E+01   -2.7135411960E+01   -2.6974525961E+01
   -2.6813290088E+01   -2.6651767006E+01   -2.6490017592E+01   -2.6328101004E+01
   -2.6166074742E+01   -2.6003994705E+01   -2.5841915236E+01   -2.5679889154E+01
   -2.5517967782E+01   -2.5356200973E+01   -2.5194637120E+01   -2.5033323100E+01
   -2.4872304337E+01   -2.4711624768E+01   -2.4551326829E+01   -2.4391451438E+01
   -2.4232037977E+01   -2.4073124335E+01   -2.3914746743E+01   -2.3756939817E+01
   -2.3599736598E+01   -2.3443168511E+01   -2.3287265402E+01   -2.3132055521E+01
   -2.2977565308E+01   -2.2823819697E+01   -2.2670842045E+01   -2.2518654303E+01
   -2.2367276623E+01   -2.2216727738E+01   -2.2067025012E+01   -2.1918184617E+01
   -2.1770221093E+01   -2.1623147875E+01   -2.1476977364E+01   -2.1331720945E+01
   -2.1187388801E+01   -2.1043990441E+01   -2.0901534746E+01   -2.0760029676E+01
   -2.0619482791E+01   -2.0479901281E+01   -2.0341291853E+01   -2.0203661029E+01
   -2.0067015194E+01   -1.9931360590E+01   -1.9796703498E+01   -1.9663050189E+01
   -1.9530407083E+01   -1.9398780726E+01   -1.9268177741E+01   -1.9138605063E+01
   -1.9010069690E+01   -1.8882578820E+01   -1.8756139837E+01   -1.8630760162E+01
   -1.8506447382E+01   -1.8383209047E+01   -1.8261052753E+01   -1.8139985913E+01
   -1.8020015974E+01   -1.7901149966E+01   -1.7783394797E+01   -1.7666757023E+01
   -1.7551242607E+01   -1.7436857482E+01   -1.7323606362E+01   -1.7211494230E+01
   -1.7100524516E+01   -1.6990700716E+01   -1.6882025075E+01   -1.6774499268E+01
   -1.6668124247E+01   -1.6562899678E+01   -1.6458825107E+01   -1.6355898067E+01
   -1.6254116590E+01   -1.6153476001E+01   -1.6053972711E+01   -1.5955599833E+01
   -1.5858351939E+01   -1.5762220039E+01   -1.5667196660E+01   -1.5573270723E+01
   -1.5480432660E+01   -1.5388669159E+01   -1.5297968513E+01   -1.5208315153E+01
   -1.5119694854E+01   -1.5032091756E+01   -1.4945490204E+01   -1.4859875467E+01
   -1.4775232264E+01   -1.4691546436E+01   -1.4608803336E+01   -1.4526989187E+01
   -1.4446089985E+01   -1.4366092159E+01   -1.4286982087E+01   -1.4208746404E+01
   -1.4131371897E+01   -1.4054845363E+01   -1.3979153838E+01   -1.3904284246E+01
   -1.3830223810E+01   -1.3756959569E+01   -1.3684478867E+01   -1.3612768895E+01
   -1.3541817071E+01   -1.3471610778E+01   -1.3402137501E+01   -1.3333384968E+01
   -1.3265340616E+01   -1.3197992823E+01   -1.3131329166E+01   -1.3065338659E+01
   -1.3000010006E+01   -1.2935332298E+01   -1.2871295906E+01   -1.2807889958E+01
   -1.2745105921E+01   -1.2682934242E+01   -1.2621366073E+01   -1.2560392935E+01
   -1.2500005981E+01   -1.2440197118E+01   -1.2380957740E+01   -1.2322279873E+01
   -1.2264155695E+01   -1.2206577072E+01   -1.2149536745E+01   -1.2093026942E+01
   -1.2037040366E+01   -1.1981569960E+01   -1.1926608207E+01   -1.1872148552E+01
   -1.1818183979E+01   -1.1764707684E+01   -1.1711713322E+01   -1.1659194090E+01
   -1.1607143841E+01   -1.1555556374E+01   -1.1504425233E+01   -1.1453744739E+01
   -1.1403508801E+01   -1.1353711520E+01   -1.1304347410E+01   -1.1255410582E+01
   -1.1206895640E+01   -1.1158797279E+01   -1.1111109819E+01   -1.1063828314E+01
   -1.1016947593E+01   -1.0970462307E+01   -1.0924367787E+01   -1.0878659025E+01
   -1.0833331045E+01   -1.0788379362E+01   -1.0743799162E+01   -1.0699585798E+01
   -1.0655734968E+01   -1.0612242048E+01   -1.0569102685E+01   -1.0526312751E+01
   -1.0483867821E+01   -1.0441763790E+01   -1.0399996711E+01   -1.0358562350E+01
   -1.0317456818E+01   -1.0276676345E+01   -1.0236216894E+01   -1.0196074754E+01
   -1.0156246334E+01   -1.0116727791E+01   -1.0077515562E+01   -1.0038606236E+01
   -9.9999961632E+00   -9.9616818985E+00   -9.9236602110E+00   -9.8859276456E+00
   -9.8484808455E+00   -9.8113167601E+00   -9.7744321296E+00   -9.7378236608E+00
   -9.7014884811E+00   -9.6654235271E+00   -9.6296255473E+00   -9.5940918432E+00
   -9.5588195037E+00   -9.5238054356E+00   -9.4890469746E+00   -9.4545413896E+00
   -9.4202857812E+00   -9.3862774641E+00   -9.3525138955E+00   -9.3189923746E+00
   -9.2857101757E+00   -9.2526649387E+00   -9.2198541411E+00   -9.1872750746E+00
   -9.1549254830E+00   -9.1228029840E+00   -9.0909050640E+00   -9.0592293787E+00
   -9.0277737385E+00   -8.9965358322E+00   -8.9655132133E+00   -8.9347038749E+00
   -8.9041056306E+00   -8.8737161703E+00   -8.8435334156E+00   -8.8135553600E+00
   -8.7837798968E+00   -8.7542048058E+00   -8.7248282671E+00   -8.6956482937E+00
   -8.6666627905E+00   -8.6378698433E+00   -8.6092676426E+00   -8.5808542939E+00
   -8.5526277294E+00   -8.5245863052E+00   -8.4967282213E+00   -8.4690516099E+00
   -8.4415546313E+00   -8.4142356848E+00   -8.3870930481E+00   -8.3601248833E+00
   -8.3333295714E+00   -8.3067055339E+00   -8.2802511290E+00   -8.2539645586E+00
   -8.2278443931E+00   -8.2018890806E+00   -8.1760970281E+00   -8.1504665683E+00
   -8.1249963483E+00   -8.0996848757E+00   -8.0745305999E+00   -8.0495320005E+00
   -8.0246877633E+00   -7.9999964653E+00   -7.9754566042E+00   -7.9510667829E+00
   -7.9268257293E+00   -7.9027320866E+00   -7.8787844064E+00   -7.8549813913E+00
   -7.8313218159E+00   -7.8078043867E+00   -7.7844277136E+00   -7.7611905773E+00
   -7.7380918038E+00   -7.7151301600E+00   -7.6923043182E+00   -7.6696131167E+00
   -7.6470554377E+00   -7.6246301054E+00   -7.6023358588E+00   -7.5801715744E+00
   -7.5581361951E+00   -7.5362285998E+00   -7.5144475979E+00   -7.4927920863E+00
   -7.4712610723E+00   -7.4498534872E+00   -7.4285682147E+00   -7.4074041554E+00
   -7.3863603843E+00   -7.3654358825E+00   -7.3446296121E+00   -7.3239404623E+00
   -7.3033675781E+00   -7.2829099882E+00   -7.2625667211E+00   -7.2423366881E+00
   -7.2222190591E+00   -7.2022129234E+00   -7.1823173548E+00   -7.1625313489E+00
   -7.1428540281E+00   -7.1232845638E+00   -7.1038220730E+00   -7.0844656410E+00
   -7.0652143294E+00   -7.0460673926E+00   -7.0270239888E+00   -7.0080832760E+00
   -6.9892443084E+00   -6.9705063601E+00   -6.9518686487E+00   -6.9333303718E+00
   -6.9148906784E+00   -6.8965487529E+00   -6.8783039049E+00   -6.8601553694E+00
   -6.8421023810E+00   -6.8241440709E+00   -6.8062797935E+00   -6.7885088339E+00
   -6.7708304625E+00   -6.7532439119E+00   -6.7357484212E+00   -6.7183433741E+00
   -6.7010280751E+00   -6.6838018285E+00   -6.6666638587E+00   -6.6496135379E+00
   -6.6326502373E+00   -6.6157732937E+00   -6.5989820406E+00   -6.5822757132E+00
   -6.5656537846E+00   -6.5491156224E+00   -6.5326605945E+00   -6.5162880350E+00
   -6.4999972778E+00   -6.4837877959E+00   -6.4676589863E+00   -6.4516102462E+00
   -6.4356409172E+00   -6.4197504144E+00   -6.4039382149E+00   -6.3882037438E+00
   -6.3725464264E+00   -6.3569656175E+00   -6.3414607965E+00   -6.3260314493E+00
   -6.3106770281E+00   -6.2953969848E+00   -6.2801906931E+00   -6.2650576798E+00
   -6.2499974454E+00   -6.2350094675E+00   -6.2200932238E+00   -6.2052481111E+00
   -6.1904736888E+00   -6.1757694772E+00   -6.1611349780E+00   -6.1465696933E+00
   -6.1320730479E+00   -6.1176446192E+00   -6.1032839519E+00   -6.0889905713E+00
   -6.0747640024E+00   -6.0606037022E+00   -6.0465092528E+00   -6.0324802281E+00
   -6.0185161754E+00   -6.0046166419E+00   -5.9907811208E+00   -5.9770091864E+00
   -5.9633004458E+00   -5.9496544676E+00   -5.9360708199E+00   -5.9225490364E+00
   -5.9090886715E+00   -5.8956893697E+00   -5.8823507193E+00   -5.8690723088E+00
   -5.8558537161E+00   -5.8426944654E+00   -5.8295942411E+00   -5.8165526507E+00
   -5.8035693018E+00   -5.7906438022E+00   -5.7777756916E+00   -5.7649646413E+00
   -5.7522102955E+00   -5.7395122800E+00   -5.7268702208E+00   -5.7142837098E+00
   -5.7017523629E+00   -5.6892758742E+00   -5.6768538868E+00   -5.6644860442E+00
   -5.6521719897E+00   -5.6399112899E+00   -5.6277036757E+00   -5.6155488116E+00
   -5.6034463575E+00   -5.5913959735E+00   -5.5793972849E+00   -5.5674499465E+00
   -5.5555536801E+00   -5.5437081617E+00   -5.5319130669E+00   -5.5201680717E+00
   -5.5084727866E+00   -5.4968269520E+00   -5.4852302719E+00   -5.4736824370E+00
   -5.4621831382E+00   -5.4507320523E+00   -5.4393288248E+00   -5.4279732229E+00
   -5.4166649520E+00   -5.4054037174E+00   -5.3941892243E+00   -5.3830211432E+00
   -5.3718991800E+00   -5.3608230941E+00   -5.3497926045E+00   -5.3388074303E+00
   -5.3278672904E+00   -5.3169718549E+00   -5.3061208761E+00   -5.2953141105E+00
   -5.2845512901E+00   -5.2738321470E+00   -5.2631564135E+00   -5.2525237639E+00
   -5.2419339844E+00   -5.2313868331E+00   -5.2208820547E+00   -5.2104193937E+00
   -5.1999985947E+00   -5.1896193415E+00   -5.1792814414E+00   -5.1689846594E+00
   -5.1587287519E+00   -5.1485134754E+00   -5.1383385865E+00   -5.1282037822E+00
   -5.1181088799E+00   -5.1080536559E+00   -5.0980378778E+00   -5.0880613136E+00
   -5.0781237311E+00   -5.0682248448E+00   -5.0583644715E+00   -5.0485424027E+00
   -5.0387584172E+00   -5.0290122936E+00   -5.0193038107E+00   -5.0096327041E+00
   -4.9999987798E+00   -4.9904018490E+00   -4.9808417007E+00   -4.9713181239E+00
   -4.9618309076E+00   -4.9523798126E+00   -4.9429646245E+00   -4.9335851778E+00
   -4.9242412713E+00   -4.9149327038E+00   -4.9056592741E+00   -4.8964207719E+00
   -4.8872169539E+00   -4.8780476806E+00   -4.8689127603E+00   -4.8598120011E+00
   -4.8507452113E+00   -4.8417121991E+00   -4.8327127258E+00   -4.8237466394E+00
   -4.8148137708E+00   -4.8059139372E+00   -4.7970469555E+00   -4.7882126430E+00
   -4.7794107972E+00   -4.7706412178E+00   -4.7619037701E+00   -4.7531982797E+00
   -4.7445245722E+00   -4.7358824734E+00   -4.7272718088E+00   -4.7186923579E+00
   -4.7101439874E+00   -4.7016265427E+00   -4.6931398574E+00   -4.6846837653E+00
   -4.6762581002E+00   -4.6678626843E+00   -4.6594973197E+00   -4.6511618925E+00
   -4.6428562443E+00   -4.6345802165E+00   -4.6263336507E+00   -4.6181163884E+00
   -4.6099282424E+00   -4.6017690600E+00   -4.5936387168E+00   -4.5855370616E+00
   -4.5774639433E+00   -4.5694192108E+00   -4.5614027131E+00   -4.5534142582E+00
   -4.5454537279E+00   -4.5375209913E+00   -4.5296159043E+00   -4.5217383228E+00
   -4.5138881027E+00   -4.5060651001E+00   -4.4982691230E+00   -4.4905000768E+00
   -4.4827578285E+00   -4.4750422408E+00   -4.4673531763E+00   -4.4596904978E+00
   -4.4520540678E+00   -4.4444436986E+00   -4.4368593090E+00   -4.4293007686E+00
   -4.4217679462E+00   -4.4142607111E+00   -4.4067789323E+00   -4.3993224787E+00
   -4.3918911708E+00   -4.3844849312E+00   -4.3771036361E+00   -4.3697471605E+00
   -4.3624153797E+00   -4.3551081688E+00   -4.3478254029E+00   -4.3405669139E+00
   -4.3333326199E+00   -4.3261224072E+00
  </PP_LOCAL>
 <PP_NONLOCAL>
   <PP_BETA.1
       type="real"
       size=" 602"
       columns="4"
       index="1"
       angular_momentum="0"
       cutoff_radius_index=" 206"
       cutoff_radius="    2.0500000000E+00" >
    0.0000000000E+00   -3.7843131344E-02   -7.5304553598E-02   -1.1200576457E-01
   -1.4757464723E-01   -1.8164859102E-01   -2.1387752825E-01   -2.4392685872E-01
   -2.7148023632E-01   -2.9624219305E-01   -3.1794057708E-01   -3.3632878331E-01
   -3.5118775690E-01   -3.6232775228E-01   -3.6958983168E-01   -3.7284709183E-01
   -3.7200560610E-01   -3.6700507720E-01   -3.5781919215E-01   -3.4445567977E-01
   -3.2695606951E-01   -3.0539515524E-01   -2.7988016940E-01   -2.5054967644E-01
   -2.1757219601E-01   -1.8114456770E-01   -1.4149007976E-01   -9.8856368965E-02
   -5.3513118021E-02   -5.7495759041E-03    4.4128085097E-02    9.5799538925E-02
    1.4893319165E-01    2.0318916096E-01    2.5822224413E-01    3.1368503699E-01
    3.6923086990E-01    4.2451694557E-01    4.7920718740E-01    5.3297512152E-01
    5.8550669308E-01    6.3650284888E-01    6.8568199661E-01    7.3278229814E-01
    7.7756375351E-01    8.1981006564E-01    8.5933025682E-01    8.9596003787E-01
    9.2956303304E-01    9.6003152545E-01    9.8728704088E-01    1.0112806098E+00
    1.0319930372E+00    1.0494343014E+00    1.0636432222E+00    1.0746867069E+00
    1.0826584729E+00    1.0876780623E+00    1.0898890089E+00    1.0894573163E+00
    1.0865694030E+00    1.0814300125E+00    1.0742598945E+00    1.0652936294E+00
    1.0547766672E+00    1.0429630847E+00    1.0301130923E+00    1.0164897425E+00
    1.0023566497E+00    9.8797533784E-01    9.7360282676E-01    9.5948834628E-01