<UPF version="2.0.1">
  <PP_INFO>

 Xe_ONCV_PBE_FR-1.1.upf

 This pseudopotential file has been produced using the code
 ONCVPSP  (Optimized Norm-Conservinng Vanderbilt PSeudopotential)
 fully-relativistic version 2.1.1, 03/26/2014 by D. R. Hamann
 The code is available through a link at URL www.mat-simresearch.com.
 Documentation with the package provides a full description of the
 input data below.

 While it is not required under the terms of the GNU GPL, it is
 suggested that you cite D. R. Hamann, Phys. Rev. B 88, 085117 (2013)
 in any publication using these pseudopotentials.

 -----

 This pseudopotential was produced with the SG15 1.0 and/or 1.1
 parameter sets, the Schlipf-Gygi norm-conserving pseudopotential
 library. For details of the construction and testing of the
 pseudopotential please refer to:

 M. Schlipf, F. Gygi, Comp. Phys. Comm. 196, 36 (2015)
 http://dx.doi.org/10.1016/j.cpc.2015.05.011

 The above authors kindly ask that you include this reference in all
 publications associated to this pseudopotential.

 Please note this fully-relativistic version does not employ the
 above self-consistent procedure at the fully-relativistic level.

 -----

 This pseudopotential was produced by Peter Scherpelz for the purpose
 of performing GW calculations with spin-orbit-coupling. Please see
 the publication:

 P. Scherpelz, M. Govoni, I. Hamada, G. Galli; J. Chem. Theory Comput. (2016)
 http://dx.doi.org/10.1021/acs.jctc.6b00114

 If you use these pseudopotentials in your work, we also kindly ask
 that you cite the above publication.

 -----

 This work is licensed under the Creative Commons Attribution-ShareAlike 
 4.0 International License. To view a copy of this license, visit 
 http://creativecommons.org/licenses/by-sa/4.0/ or send a letter to 
 Creative Commons, PO Box 1866, Mountain View, CA 94042, USA.

 The SG15 library is Copyright 2015 The Regents of the University of
 California.  Further modifications of these files are Copyright 2016
 Peter Scherpelz.

    <PP_INPUTFILE>
# ATOM AND REFERENCE CONFIGURATION
# atsym  z    nc    nv    iexc   psfile
  Xe 54.00     8     3     4      upf
#
#   n    l    f        energy (Ha)
    1    0    2.00
    2    0    2.00
    2    1    6.00
    3    0    2.00
    3    1    6.00
    3    2   10.00
    4    0    2.00
    4    1    6.00
    4    2   10.00
    5    0    2.00
    5    1    6.00
#
# PSEUDOPOTENTIAL AND OPTIMIZATION
# lmax
    2
#
#   l,   rc,     ep,   ncon, nbas, qcut
    0    3.01   -0.72    5    8    4.78
    1    3.01   -0.29    5    8    5.39
    2    2.70   -2.15    5    8    6.89
#
# LOCAL POTENTIAL
# lloc, lpopt,  rc(5),   dvloc0
    4    5      2.32       0.00
#
# VANDERBILT-KLEINMAN-BYLANDER PROJECTORs
# l, nproj, debl
    0    2    1.3900
    1    2    0.9149
    2    2    2.3104
#
# MODEL CORE CHARGE
# icmod, fcfact
    0    0.00
#
# LOG DERIVATIVE ANALYSIS
# epsh1, epsh2, depsh
   -5.00    3.00    0.02
#
# OUTPUT GRID
# rlmax, drl
    6.00    0.01
#
# TEST CONFIGURATIONS
# ncnf
    0
# nvcnf
#   n    l    f
    </PP_INPUTFILE>
  </PP_INFO>
  <!--                               -->
  <!-- END OF HUMAN READABLE SECTION -->
  <!--                               -->
    <PP_HEADER
       generated="Generated using ONCVPSP code by D. R. Hamann"
       author="anonymous"
       date="150703"
       comment=""
       element="Xe"
       pseudo_type="NC"
       relativistic="full"
       is_ultrasoft="F"
       is_paw="F"
       is_coulomb="F"
       has_so="T"
       has_wfc="F"
       has_gipaw="F"
       core_correction="F"
       functional="PBE"
       z_valence="   18.00"
       total_psenergy="  -1.15873246719E+02"
       rho_cutoff="   6.01000000000E+00"
       l_max="2"
       l_local="-1"
       mesh_size="   602"
       number_of_wfc="0"
       number_of_proj="10"/>
 <PP_MESH>
   <PP_R type="real"  size=" 602" columns="8">
    0.0000    0.0100    0.0200    0.0300    0.0400    0.0500    0.0600    0.0700
    0.0800    0.0900    0.1000    0.1100    0.1200    0.1300    0.1400    0.1500
    0.1600    0.1700    0.1800    0.1900    0.2000    0.2100    0.2200    0.2300
    0.2400    0.2500    0.2600    0.2700    0.2800    0.2900    0.3000    0.3100
    0.3200    0.3300    0.3400    0.3500    0.3600    0.3700    0.3800    0.3900
    0.4000    0.4100    0.4200    0.4300    0.4400    0.4500    0.4600    0.4700
    0.4800    0.4900    0.5000    0.5100    0.5200    0.5300    0.5400    0.5500
    0.5600    0.5700    0.5800    0.5900    0.6000    0.6100    0.6200    0.6300
    0.6400    0.6500    0.6600    0.6700    0.6800    0.6900    0.7000    0.7100
    0.7200    0.7300    0.7400    0.7500    0.7600    0.7700    0.7800    0.7900
    0.8000    0.8100    0.8200    0.8300    0.8400    0.8500    0.8600    0.8700
    0.8800    0.8900    0.9000    0.9100    0.9200    0.9300    0.9400    0.9500
    0.9600    0.9700    0.9800    0.9900    1.0000    1.0100    1.0200    1.0300
    1.0400    1.0500    1.0600    1.0700    1.0800    1.0900    1.1000    1.1100
    1.1200    1.1300    1.1400    1.1500    1.1600    1.1700    1.1800    1.1900
    1.2000    1.2100    1.2200    1.2300    1.2400    1.2500    1.2600    1.2700
    1.2800    1.2900    1.3000    1.3100    1.3200    1.3300    1.3400    1.3500
    1.3600    1.3700    1.3800    1.3900    1.4000    1.4100    1.4200    1.4300
    1.4400    1.4500    1.4600    1.4700    1.4800    1.4900    1.5000    1.5100
    1.5200    1.5300    1.5400    1.5500    1.5600    1.5700    1.5800    1.5900
    1.6000    1.6100    1.6200    1.6300    1.6400    1.6500    1.6600    1.6700
    1.6800    1.6900    1.7000    1.7100    1.7200    1.7300    1.7400    1.7500
    1.7600    1.7700    1.7800    1.7900    1.8000    1.8100    1.8200    1.8300
    1.8400    1.8500    1.8600    1.8700    1.8800    1.8900    1.9000    1.9100
    1.9200    1.9300    1.9400    1.9500    1.9600    1.9700    1.9800    1.9900
    2.0000    2.0100    2.0200    2.0300    2.0400    2.0500    2.0600    2.0700
    2.0800    2.0900    2.1000    2.1100    2.1200    2.1300    2.1400    2.1500
    2.1600    2.1700    2.1800    2.1900    2.2000    2.2100    2.2200    2.2300
    2.2400    2.2500    2.2600    2.2700    2.2800    2.2900    2.3000    2.3100
    2.3200    2.3300    2.3400    2.3500    2.3600    2.3700    2.3800    2.3900
    2.4000    2.4100    2.4200    2.4300    2.4400    2.4500    2.4600    2.4700
    2.4800    2.4900    2.5000    2.5100    2.5200    2.5300    2.5400    2.5500
    2.5600    2.5700    2.5800    2.5900    2.6000    2.6100    2.6200    2.6300
    2.6400    2.6500    2.6600    2.6700    2.6800    2.6900    2.7000    2.7100
    2.7200    2.7300    2.7400    2.7500    2.7600    2.7700    2.7800    2.7900
    2.8000    2.8100    2.8200    2.8300    2.8400    2.8500    2.8600    2.8700
    2.8800    2.8900    2.9000    2.9100    2.9200    2.9300    2.9400    2.9500
    2.9600    2.9700    2.9800    2.9900    3.0000    3.0100    3.0200    3.0300
    3.0400    3.0500    3.0600    3.0700    3.0800    3.0900    3.1000    3.1100
    3.1200    3.1300    3.1400    3.1500    3.1600    3.1700    3.1800    3.1900
    3.2000    3.2100    3.2200    3.2300    3.2400    3.2500    3.2600    3.2700
    3.2800    3.2900    3.3000    3.3100    3.3200    3.3300    3.3400    3.3500
    3.3600    3.3700    3.3800    3.3900    3.4000    3.4100    3.4200    3.4300
    3.4400    3.4500    3.4600    3.4700    3.4800    3.4900    3.5000    3.5100
    3.5200    3.5300    3.5400    3.5500    3.5600    3.5700    3.5800    3.5900
    3.6000    3.6100    3.6200    3.6300    3.6400    3.6500    3.6600    3.6700
    3.6800    3.6900    3.7000    3.7100    3.7200    3.7300    3.7400    3.7500
    3.7600    3.7700    3.7800    3.7900    3.8000    3.8100    3.8200    3.8300
    3.8400    3.8500    3.8600    3.8700    3.8800    3.8900    3.9000    3.9100
    3.9200    3.9300    3.9400    3.9500    3.9600    3.9700    3.9800    3.9900
    4.0000    4.0100    4.0200    4.0300    4.0400    4.0500    4.0600    4.0700
    4.0800    4.0900    4.1000    4.1100    4.1200    4.1300    4.1400    4.1500
    4.1600    4.1700    4.1800    4.1900    4.2000    4.2100    4.2200    4.2300
    4.2400    4.2500    4.2600    4.2700    4.2800    4.2900    4.3000    4.3100
    4.3200    4.3300    4.3400    4.3500    4.3600    4.3700    4.3800    4.3900
    4.4000    4.4100    4.4200    4.4300    4.4400    4.4500    4.4600    4.4700
    4.4800    4.4900    4.5000    4.5100    4.5200    4.5300    4.5400    4.5500
    4.5600    4.5700    4.5800    4.5900    4.6000    4.6100    4.6200    4.6300
    4.6400    4.6500    4.6600    4.6700    4.6800    4.6900    4.7000    4.7100
    4.7200    4.7300    4.7400    4.7500    4.7600    4.7700    4.7800    4.7900
    4.8000    4.8100    4.8200    4.8300    4.8400    4.8500    4.8600    4.8700
    4.8800    4.8900    4.9000    4.9100    4.9200    4.9300    4.9400    4.9500
    4.9600    4.9700    4.9800    4.9900    5.0000    5.0100    5.0200    5.0300
    5.0400    5.0500    5.0600    5.0700    5.0800    5.0900    5.1000    5.1100
    5.1200    5.1300    5.1400    5.1500    5.1600    5.1700    5.1800    5.1900
    5.2000    5.2100    5.2200    5.2300    5.2400    5.2500    5.2600    5.2700
    5.2800    5.2900    5.3000    5.3100    5.3200    5.3300    5.3400    5.3500
    5.3600    5.3700    5.3800    5.3900    5.4000    5.4100    5.4200    5.4300
    5.4400    5.4500    5.4600    5.4700    5.4800    5.4900    5.5000    5.5100
    5.5200    5.5300    5.5400    5.5500    5.5600    5.5700    5.5800    5.5900
    5.6000    5.6100    5.6200    5.6300    5.6400    5.6500    5.6600    5.6700
    5.6800    5.6900    5.7000    5.7100    5.7200    5.7300    5.7400    5.7500
    5.7600    5.7700    5.7800    5.7900    5.8000    5.8100    5.8200    5.8300
    5.8400    5.8500    5.8600    5.8700    5.8800    5.8900    5.9000    5.9100
    5.9200    5.9300    5.9400    5.9500    5.9600    5.9700    5.9800    5.9900
    6.0000    6.0100
   </PP_R>
   <PP_RAB type="real"  size=" 602" columns="8">
    0.0100    0.0100    0.0100    0.0100    0.0100    0.0100    0.0100    0.0100
    0.0100    0.0100    0.0100    0.0100    0.0100    0.0100    0.0100    0.0100
    0.0100    0.0100    0.0100    0.0100    0.0100    0.0100    0.0100    0.0100
    0.0100    0.0100    0.0100    0.0100    0.0100    0.0100    0.0100    0.0100
    0.0100    0.0100    0.0100    0.0100    0.0100    0.0100    0.0100    0.0100
    0.0100    0.0100    0.0100    0.0100    0.0100    0.0100    0.0100    0.0100
    0.0100    0.0100    0.0100    0.0100    0.0100    0.0100    0.0100    0.0100
    0.0100    0.0100    0.0100    0.0100    0.0100    0.0100    0.0100    0.0100
    0.0100    0.0100    0.0100    0.0100    0.0100    0.0100    0.0100    0.0100
    0.0100    0.0100    0.0100    0.0100    0.0100    0.0100    0.0100    0.0100
    0.0100    0.0100    0.0100    0.0100    0.0100    0.0100    0.0100    0.0100
    0.0100    0.0100    0.0100    0.0100    0.0100    0.0100    0.0100    0.0100
    0.0100    0.0100    0.0100    0.0100    0.0100    0.0100    0.0100    0.0100
    0.0100    0.0100    0.0100    0.0100    0.0100    0.0100    0.0100    0.0100
    0.0100    0.0100    0.0100    0.0100    0.0100    0.0100    0.0100    0.0100
    0.0100    0.0100    0.0100    0.0100    0.0100    0.0100    0.0100    0.0100
    0.0100    0.0100    0.0100    0.0100    0.0100    0.0100    0.0100    0.0100
    0.0100    0.0100    0.0100    0.0100    0.0100    0.0100    0.0100    0.0100
    0.0100    0.0100    0.0100    0.0100    0.0100    0.0100    0.0100    0.0100
    0.0100    0.0100    0.0100    0.0100    0.0100    0.0100    0.0100    0.0100
    0.0100    0.0100    0.0100    0.0100    0.0100    0.0100    0.0100    0.0100
    0.0100    0.0100    0.0100    0.0100    0.0100    0.0100    0.0100    0.0100
    0.0100    0.0100    0.0100    0.0100    0.0100    0.0100    0.0100    0.0100
    0.0100    0.0100    0.0100    0.0100    0.0100    0.0100    0.0100    0.0100
    0.0100    0.0100    0.0100    0.0100    0.0100    0.0100    0.0100    0.0100
    0.0100    0.0100    0.0100    0.0100    0.0100    0.0100    0.0100    0.0100
    0.0100    0.0100    0.0100    0.0100    0.0100    0.0100    0.0100    0.0100
    0.0100    0.0100    0.0100    0.0100    0.0100    0.0100    0.0100    0.0100
    0.0100    0.0100    0.0100    0.0100    0.0100    0.0100    0.0100    0.0100
    0.0100    0.0100    0.0100    0.0100    0.0100    0.0100    0.0100    0.0100
    0.0100    0.0100    0.0100    0.0100    0.0100    0.0100    0.0100    0.0100
    0.0100    0.0100    0.0100    0.0100    0.0100    0.0100    0.0100    0.0100
    0.0100    0.0100    0.0100    0.0100    0.0100    0.0100    0.0100    0.0100
    0.0100    0.0100    0.0100    0.0100    0.0100    0.0100    0.0100    0.0100
    0.0100    0.0100    0.0100    0.0100    0.0100    0.0100    0.0100    0.0100
    0.0100    0.0100    0.0100    0.0100    0.0100    0.0100    0.0100    0.0100
    0.0100    0.0100    0.0100    0.0100    0.0100    0.0100    0.0100    0.0100
    0.0100    0.0100    0.0100    0.0100    0.0100    0.0100    0.0100    0.0100
    0.0100    0.0100    0.0100    0.0100    0.0100    0.0100    0.0100    0.0100
    0.0100    0.0100    0.0100    0.0100    0.0100    0.0100    0.0100    0.0100
    0.0100    0.0100    0.0100    0.0100    0.0100    0.0100    0.0100    0.0100
    0.0100    0.0100    0.0100    0.0100    0.0100    0.0100    0.0100    0.0100
    0.0100    0.0100    0.0100    0.0100    0.0100    0.0100    0.0100    0.0100
    0.0100    0.0100    0.0100    0.0100    0.0100    0.0100    0.0100    0.0100
    0.0100    0.0100    0.0100    0.0100    0.0100    0.0100    0.0100    0.0100
    0.0100    0.0100    0.0100    0.0100    0.0100    0.0100    0.0100    0.0100
    0.0100    0.0100    0.0100    0.0100    0.0100    0.0100    0.0100    0.0100
    0.0100    0.0100    0.0100    0.0100    0.0100    0.0100    0.0100    0.0100
    0.0100    0.0100    0.0100    0.0100    0.0100    0.0100    0.0100    0.0100
    0.0100    0.0100    0.0100    0.0100    0.0100    0.0100    0.0100    0.0100
    0.0100    0.0100    0.0100    0.0100    0.0100    0.0100    0.0100    0.0100
    0.0100    0.0100    0.0100    0.0100    0.0100    0.0100    0.0100    0.0100
    0.0100    0.0100    0.0100    0.0100    0.0100    0.0100    0.0100    0.0100
    0.0100    0.0100    0.0100    0.0100    0.0100    0.0100    0.0100    0.0100
    0.0100    0.0100    0.0100    0.0100    0.0100    0.0100    0.0100    0.0100
    0.0100    0.0100    0.0100    0.0100    0.0100    0.0100    0.0100    0.0100
    0.0100    0.0100    0.0100    0.0100    0.0100    0.0100    0.0100    0.0100
    0.0100    0.0100    0.0100    0.0100    0.0100    0.0100    0.0100    0.0100
    0.0100    0.0100    0.0100    0.0100    0.0100    0.0100    0.0100    0.0100
    0.0100    0.0100    0.0100    0.0100    0.0100    0.0100    0.0100    0.0100
    0.0100    0.0100    0.0100    0.0100    0.0100    0.0100    0.0100    0.0100
    0.0100    0.0100    0.0100    0.0100    0.0100    0.0100    0.0100    0.0100
    0.0100    0.0100    0.0100    0.0100    0.0100    0.0100    0.0100    0.0100
    0.0100    0.0100    0.0100    0.0100    0.0100    0.0100    0.0100    0.0100
    0.0100    0.0100    0.0100    0.0100    0.0100    0.0100    0.0100    0.0100
    0.0100    0.0100    0.0100    0.0100    0.0100    0.0100    0.0100    0.0100
    0.0100    0.0100    0.0100    0.0100    0.0100    0.0100    0.0100    0.0100
    0.0100    0.0100    0.0100    0.0100    0.0100    0.0100    0.0100    0.0100
    0.0100    0.0100    0.0100    0.0100    0.0100    0.0100    0.0100    0.0100
    0.0100    0.0100    0.0100    0.0100    0.0100    0.0100    0.0100    0.0100
    0.0100    0.0100    0.0100    0.0100    0.0100    0.0100    0.0100    0.0100
    0.0100    0.0100    0.0100    0.0100    0.0100    0.0100    0.0100    0.0100
    0.0100    0.0100    0.0100    0.0100    0.0100    0.0100    0.0100    0.0100
    0.0100    0.0100    0.0100    0.0100    0.0100    0.0100    0.0100    0.0100
    0.0100    0.0100    0.0100    0.0100    0.0100    0.0100    0.0100    0.0100
    0.0100    0.0100
   </PP_RAB>
 </PP_MESH>
  <PP_LOCAL type="real"  size=" 602" columns="4">
   -3.5032278233E+01   -3.5013680039E+01   -3.5218152711E+01   -3.5740295153E+01
   -3.6674706271E+01   -3.7524902532E+01   -3.7298657536E+01   -3.6123510648E+01
   -3.5120825191E+01   -3.4685538255E+01   -3.4587891737E+01   -3.4599927076E+01
   -3.4624385103E+01   -3.4635776287E+01   -3.4632774503E+01   -3.4619294821E+01
   -3.4599155024E+01   -3.4575171874E+01   -3.4549336099E+01   -3.4523106014E+01
   -3.4497616552E+01   -3.4473796728E+01   -3.4452422800E+01   -3.4434131360E+01
   -3.4419408739E+01   -3.4408567579E+01   -3.4401717614E+01   -3.4398737714E+01
   -3.4399253683E+01   -3.4402627140E+01   -3.4407959573E+01   -3.4414114533E+01
   -3.4419759223E+01   -3.4423424532E+01   -3.4423579997E+01   -3.4418718991E+01
   -3.4407446976E+01   -3.4388563626E+01   -3.4361135173E+01   -3.4324545310E+01
   -3.4278524018E+01   -3.4223151069E+01   -3.4158834627E+01   -3.4086268020E+01
   -3.4006369789E+01   -3.3920213506E+01   -3.3828954470E+01   -3.3733760111E+01
   -3.3635749851E+01   -3.3535948926E+01   -3.3435255425E+01   -3.3334423961E+01
   -3.3234063593E+01   -3.3134642574E+01   -3.3036502965E+01   -3.2939880096E+01
   -3.2844918266E+01   -3.2751693500E+01   -3.2660226161E+01   -3.2570498431E+01
   -3.2482463301E+01   -3.2396054718E+01   -3.2311193352E+01   -3.2227790914E+01
   -3.2145753063E+01   -3.2064980454E+01   -3.1985369081E+01   -3.1906809849E+01
   -3.1829187597E+01   -3.1752379408E+01   -3.1676253458E+01   -3.1600667529E+01
   -3.1525467922E+01   -3.1450488586E+01   -3.1375550857E+01   -3.1300464338E+01
   -3.1225028213E+01   -3.1149033559E+01   -3.1072266553E+01   -3.0994512480E+01
   -3.0915560419E+01   -3.0835208359E+01   -3.0753268477E+01   -3.0669572266E+01
   -3.0583975174E+01   -3.0496360460E+01   -3.0406642002E+01   -3.0314765905E+01
   -3.0220710804E+01   -3.0124486893E+01   -3.0026133806E+01   -2.9925717512E+01
   -2.9823326500E+01   -2.9719067506E+01   -2.9613061073E+01   -2.9505437172E+01
   -2.9396331116E+01   -2.9285879901E+01   -2.9174219244E+01   -2.9061480784E+01
   -2.8947789945E+01   -2.8833264831E+01   -2.8718015296E+01   -2.8602142505E+01
   -2.8485739180E+01   -2.8368888955E+01   -2.8251666949E+01   -2.8134140909E+01
   -2.8016371564E+01   -2.7898413659E+01   -2.7780315379E+01   -2.7662120015E+01
   -2.7543866583E+01   -2.7425590435E+01   -2.7307323050E+01   -2.7189092832E+01
   -2.7070925777E+01   -2.6952845822E+01   -2.6834874234E+01   -2.6717030601E+01
   -2.6599332994E+01   -2.6481797819E+01   -2.6364439644E+01   -2.6247271872E+01
   -2.6130306742E+01   -2.6013554505E+01   -2.5897024431E+01   -2.5780724820E+01
   -2.5664661931E+01   -2.5548841213E+01   -2.5433267156E+01   -2.5317942382E+01
   -2.5202868947E+01   -2.5088047835E+01   -2.4973478704E+01   -2.4859160882E+01
   -2.4745092606E+01   -2.4631271613E+01   -2.4517695379E+01   -2.4404360779E+01
   -2.4291264790E+01   -2.4178404227E+01   -2.4065776294E+01   -2.3953378087E+01
   -2.3841207677E+01   -2.3729263217E+01   -2.3617543709E+01   -2.3506048936E+01
   -2.3394778960E+01   -2.3283735306E+01   -2.3172919271E+01   -2.3062333683E+01
   -2.2951981169E+01   -2.2841865214E+01   -2.2731989235E+01   -2.2622356964E+01
   -2.2512971710E+01   -2.2403836980E+01   -2.2294955057E+01   -2.2186328714E+01
   -2.2077958554E+01   -2.1969846099E+01   -2.1861990188E+01   -2.1754390619E+01
   -2.1647045003E+01   -2.1539951576E+01   -2.1433107520E+01   -2.1326510274E+01
   -2.1220157862E+01   -2.1114048083E+01   -2.1008181443E+01   -2.0902557421E+01
   -2.0797180753E+01   -2.0692053820E+01   -2.0587187059E+01   -2.0482586721E+01
   -2.0378269665E+01   -2.0274246699E+01   -2.0170540336E+01   -2.0067167464E+01
   -1.9964153752E+01   -1.9861522095E+01   -1.9759299827E+01   -1.9657514194E+01
   -1.9556193155E+01   -1.9455365637E+01   -1.9355059762E+01   -1.9255303071E+01
   -1.9156123736E+01   -1.9057545419E+01   -1.8959595593E+01   -1.8862293798E+01
   -1.8765663580E+01   -1.8669722583E+01   -1.8574488318E+01   -1.8479977318E+01
   -1.8386200559E+01   -1.8293173570E+01   -1.8200902429E+01   -1.8109398222E+01
   -1.8018666323E+01   -1.7928712075E+01   -1.7839540847E+01   -1.7751153288E+01
   -1.7663553712E+01   -1.7576740662E+01   -1.7490714814E+01   -1.7405475310E+01
   -1.7321019180E+01   -1.7237345764E+01   -1.7154450133E+01   -1.7072329367E+01
   -1.6990979207E+01   -1.6910394163E+01   -1.6830570318E+01   -1.6751500863E+01
   -1.6673180277E+01   -1.6595602408E+01   -1.6518759980E+01   -1.6442646845E+01
   -1.6367255150E+01   -1.6292577443E+01   -1.6218606450E+01   -1.6145333577E+01
   -1.6072751077E+01   -1.6000850468E+01   -1.5929622874E+01   -1.5859060123E+01
   -1.5789152791E+01   -1.5719891821E+01   -1.5651268327E+01   -1.5583272485E+01
   -1.5515894811E+01   -1.5449125840E+01   -1.5382956149E+01   -1.5317375946E+01
   -1.5252376226E+01   -1.5187948167E+01   -1.5124082253E+01   -1.5060770281E+01
   -1.4998003823E+01   -1.4935773750E+01   -1.4874072636E+01   -1.4812892372E+01
   -1.4752224505E+01   -1.4692062090E+01   -1.4632397465E+01   -1.4573222825E+01
   -1.4514531709E+01   -1.4456316928E+01   -1.4398571276E+01   -1.4341288779E+01
   -1.4284462745E+01   -1.4228086501E+01   -1.4172154563E+01   -1.4116660753E+01
   -1.4061598857E+01   -1.4006963874E+01   -1.3952750151E+01   -1.3898951856E+01
   -1.3845564456E+01   -1.3792582816E+01   -1.3740001423E+01   -1.3687816176E+01
   -1.3636022425E+01   -1.3584614974E+01   -1.3533590056E+01   -1.3482943412E+01
   -1.3432670354E+01   -1.3382767163E+01   -1.3333229993E+01   -1.3284054635E+01
   -1.3235237365E+01   -1.3186774665E+01   -1.3138662721E+01   -1.3090897807E+01
   -1.3043476639E+01   -1.2996395698E+01   -1.2949651263E+01   -1.2903240241E+01
   -1.2857159290E+01   -1.2811404896E+01   -1.2765973923E+01   -1.2720863226E+01
   -1.2676069517E+01   -1.2631589580E+01   -1.2587420438E+01   -1.2543558988E+01
   -1.2500001974E+01   -1.2456746530E+01   -1.2413789646E+01   -1.2371128231E+01
   -1.2328759318E+01   -1.2286680041E+01   -1.2244887457E+01   -1.2203378502E+01
   -1.2162150450E+01   -1.2121200437E+01   -1.2080525491E+01   -1.2040122810E+01
   -1.1999989737E+01   -1.1960123512E+01   -1.1920521055E+01   -1.1881180067E+01
   -1.1842097976E+01   -1.1803272080E+01   -1.1764699734E+01   -1.1726378717E+01
   -1.1688306592E+01   -1.1650480774E+01   -1.1612898969E+01   -1.1575558912E+01
   -1.1538458268E+01   -1.1501594460E+01   -1.1464965494E+01   -1.1428569153E+01
   -1.1392403155E+01   -1.1356465177E+01   -1.1320753279E+01   -1.1285265339E+01
   -1.1249999132E+01   -1.1214952555E+01   -1.1180123717E+01   -1.1145510596E+01
   -1.1111111030E+01   -1.1076923104E+01   -1.1042944979E+01   -1.1009174728E+01
   -1.0975610262E+01   -1.0942249817E+01   -1.0909091618E+01   -1.0876133824E+01
   -1.0843374428E+01   -1.0810811786E+01   -1.0778444190E+01   -1.0746269887E+01
   -1.0714286952E+01   -1.0682493835E+01   -1.0650888902E+01   -1.0619470482E+01
   -1.0588236740E+01   -1.0557186190E+01   -1.0526317280E+01   -1.0495628417E+01
   -1.0465117860E+01   -1.0434784163E+01   -1.0404625861E+01   -1.0374641437E+01
   -1.0344829247E+01   -1.0315187863E+01   -1.0285715911E+01   -1.0256411945E+01
   -1.0227274429E+01   -1.0198301923E+01   -1.0169493156E+01   -1.0140846744E+01
   -1.0112361265E+01   -1.0084035251E+01   -1.0055867531E+01   -1.0027856786E+01
   -1.0000001702E+01   -9.9723007885E+00   -9.9447529530E+00   -9.9173569475E+00
   -9.8901115171E+00   -9.8630152910E+00   -9.8360671006E+00   -9.8092658150E+00
   -9.7826102374E+00   -9.7560991233E+00   -9.7297312104E+00   -9.7035054856E+00
   -9.6774208079E+00   -9.6514760365E+00   -9.6256698875E+00   -9.6000013795E+00
   -9.5744694523E+00   -9.5490730180E+00   -9.5238109268E+00   -9.4986820644E+00
   -9.4736855002E+00   -9.4488201970E+00   -9.4240851180E+00   -9.3994790908E+00
   -9.3750012252E+00   -9.3506505604E+00   -9.3264261075E+00   -9.3023268373E+00
   -9.2783516929E+00   -9.2544998508E+00   -9.2307703685E+00   -9.2071623033E+00
   -9.1836746170E+00   -9.1603064262E+00   -9.1370568942E+00   -9.1139251222E+00
   -9.0909102116E+00   -9.0680111267E+00   -9.0452271290E+00   -9.0225573755E+00
   -9.0000010095E+00   -8.9775571501E+00   -8.9552248460E+00   -8.9330034041E+00
   -8.9108920075E+00   -8.8888898392E+00   -8.8669960309E+00   -8.8452097345E+00
   -8.8235302662E+00   -8.8019568469E+00   -8.7804886980E+00   -8.7591249714E+00
   -8.7378648994E+00   -8.7167078140E+00   -8.6956529726E+00   -8.6746996325E+00
   -8.6538469737E+00   -8.6330942869E+00   -8.6124409267E+00   -8.5918861851E+00
   -8.5714293542E+00   -8.5510696483E+00   -8.5308063959E+00   -8.5106389811E+00
   -8.4905667291E+00   -8.4705889647E+00   -8.4507049431E+00   -8.4309140111E+00
   -8.4112155891E+00   -8.3916090334E+00   -8.3720937005E+00   -8.3526688922E+00
   -8.3333339557E+00   -8.3140883531E+00   -8.2949314710E+00   -8.2758626957E+00
   -8.2568813815E+00   -8.2379868593E+00   -8.2191786383E+00   -8.2004561335E+00
   -8.1818187601E+00   -8.1632659304E+00   -8.1447969434E+00   -8.1264113601E+00
   -8.1081086226E+00   -8.0898881733E+00   -8.0717494543E+00   -8.0536918201E+00
   -8.0357147862E+00   -8.0178178538E+00   -8.0000004914E+00   -7.9822621670E+00
   -7.9646023045E+00   -7.9470203514E+00   -7.9295158747E+00   -7.9120883675E+00
   -7.8947373228E+00   -7.8774622336E+00   -7.8602624844E+00   -7.8431376936E+00
   -7.8260873831E+00   -7.8091110694E+00   -7.7922082694E+00   -7.7753784463E+00
   -7.7586211203E+00   -7.7419358904E+00   -7.7253222958E+00   -7.7087798758E+00
   -7.6923081695E+00   -7.6759066161E+00   -7.6595748650E+00   -7.6433124859E+00
   -7.6271190395E+00   -7.6109940863E+00   -7.5949371541E+00   -7.5789477675E+00
   -7.5630255823E+00   -7.5471701797E+00   -7.5313811408E+00   -7.5156580466E+00
   -7.5000004132E+00   -7.4844078581E+00   -7.4688800223E+00   -7.4534165064E+00
   -7.4380169110E+00   -7.4226808368E+00   -7.4074077964E+00   -7.3921974802E+00
   -7.3770495214E+00   -7.3619635392E+00   -7.3469391528E+00   -7.3319759771E+00
   -7.3170735420E+00   -7.3022315786E+00   -7.2874497239E+00   -7.2727276149E+00
   -7.2580648885E+00   -7.2434611668E+00   -7.2289160217E+00   -7.2144291894E+00
   -7.2000003237E+00   -7.1856290786E+00   -7.1713151079E+00   -7.1570580471E+00
   -7.1428574944E+00   -7.1287131967E+00   -7.1146248240E+00   -7.1005920463E+00
   -7.0866145335E+00   -7.0726919411E+00   -7.0588238777E+00   -7.0450101069E+00
   -7.0312503140E+00   -7.0175441843E+00   -7.0038914034E+00   -6.9902916519E+00
   -6.9767445351E+00   -6.9632498381E+00   -6.9498072612E+00   -6.9364165044E+00
   -6.9230772676E+00   -6.9097892511E+00   -6.8965520778E+00   -6.8833655250E+00
   -6.8702293184E+00   -6.8571431720E+00   -6.8441067998E+00   -6.8311199159E+00
   -6.8181821805E+00   -6.8052933358E+00   -6.7924531428E+00   -6.7796613287E+00
   -6.7669176209E+00   -6.7542217467E+00   -6.7415734088E+00   -6.7289723025E+00
   -6.7164182280E+00   -6.7039109253E+00   -6.6914501346E+00   -6.6790355958E+00
   -6.6666670491E+00   -6.6543441617E+00   -6.6420667471E+00   -6.6298345673E+00
   -6.6176473744E+00   -6.6055049206E+00   -6.5934069581E+00   -6.5813532062E+00
   -6.5693434058E+00   -6.5573773691E+00   -6.5454548598E+00   -6.5335756417E+00
   -6.5217394784E+00   -6.5099461337E+00   -6.4981953049E+00   -6.4864868186E+00
   -6.4748204621E+00   -6.4631960100E+00   -6.4516132372E+00   -6.4400719183E+00
   -6.4285718120E+00   -6.4171126500E+00   -6.4056942786E+00   -6.3943164828E+00
   -6.3829790481E+00   -6.3716817595E+00   -6.3604244023E+00   -6.3492067247E+00
   -6.3380285150E+00   -6.3268896069E+00   -6.3157897958E+00   -6.3047288769E+00
   -6.2937066454E+00   -6.2827228966E+00   -6.2717773747E+00   -6.2608699094E+00
   -6.2500003283E+00   -6.2391684361E+00   -6.2283740378E+00   -6.2176169380E+00
   -6.2068969415E+00   -6.1962137950E+00   -6.1855673547E+00   -6.1749574484E+00
   -6.1643838897E+00   -6.1538464927E+00   -6.1433450711E+00   -6.1328794389E+00
   -6.1224493505E+00   -6.1120546756E+00   -6.1016952475E+00   -6.0913708887E+00
   -6.0810814217E+00   -6.0708266691E+00   -6.0606064534E+00   -6.0504205422E+00
   -6.0402688058E+00   -6.0301510887E+00   -6.0200672216E+00   -6.0100170353E+00
   -6.0000003607E+00   -5.9900170285E+00
  </PP_LOCAL>
 <PP_NONLOCAL>
   <PP_BETA.1
       type="real"
       size=" 602"
       columns="4"
       index="1"
       angular_momentum="0"
       cutoff_radius_index=" 306"
       cutoff_radius="    3.0500000000E+00" >
    0.0000000000E+00    1.6944826039E-02    3.3861869592E-02    5.0723377309E-02
    6.7501654100E-02    8.4169092262E-02    1.0069820058E-01    1.1706163340E-01
    1.3323221971E-01    1.4918299214E-01    1.6488721595E-01    1.8031841799E-01
    1.9545041553E-01    2.1025734509E-01    2.2471369117E-01    2.3879431487E-01
    2.5247448242E-01    2.6572989356E-01    2.7853670987E-01    2.9087158276E-01
    3.0271168152E-01    3.1403472095E-01    3.2481898889E-01    3.3504337349E-01
    3.4468739017E-01    3.5373120824E-01    3.6215567737E-01    3.6994235343E-01
    3.7707352408E-01    3.8353223393E-01    3.8930230922E-01    3.9436838197E-01
    3.9871591355E-01    4.0233121751E-01    4.0520148246E-01    4.0731479310E-01
    4.0866015193E-01    4.0922749847E-01    4.0900772982E-01    4.0799271838E-01
    4.0617532963E-01    4.0354943890E-01    4.0010994695E-01    3.9585279463E-01
    3.9077497638E-01    3.8487455254E-01    3.7815066057E-01    3.7060352494E-01
    3.6223446568E-01    3.5304590522E-01    3.4304137550E-01    3.3222552180E-01
    3.2060410480E-01    3.0818400372E-01    2.9497321582E-01    2.8098085321E-01
    2.6621714309E-01    2.5069341849E-01    2.3442211637E-01    2.1741676536E-01
    1.9969197891E-01    1.8126344186E-01    1.6214789783E-01    1.4236313374E-01
    1.2192796371E-01    1.0086220941E-01    7.9186679529E-02    5.6923148883E-02