<UPF version="2.0.1">
  <PP_INFO>

 Zn_ONCV_PBE_FR-1.0.upf

 This pseudopotential file has been produced using the code
 ONCVPSP  (Optimized Norm-Conservinng Vanderbilt PSeudopotential)
 fully-relativistic version 2.1.1, 03/26/2014 by D. R. Hamann
 The code is available through a link at URL www.mat-simresearch.com.
 Documentation with the package provides a full description of the
 input data below.

 While it is not required under the terms of the GNU GPL, it is
 suggested that you cite D. R. Hamann, Phys. Rev. B 88, 085117 (2013)
 in any publication using these pseudopotentials.

 -----

 This pseudopotential was produced with the SG15 1.0 and/or 1.1
 parameter sets, the Schlipf-Gygi norm-conserving pseudopotential
 library. For details of the construction and testing of the
 pseudopotential please refer to:

 M. Schlipf, F. Gygi, Comp. Phys. Comm. 196, 36 (2015)
 http://dx.doi.org/10.1016/j.cpc.2015.05.011

 The above authors kindly ask that you include this reference in all
 publications associated to this pseudopotential.

 Please note this fully-relativistic version does not employ the
 above self-consistent procedure at the fully-relativistic level.

 -----

 This pseudopotential was produced by Peter Scherpelz for the purpose
 of performing GW calculations with spin-orbit-coupling. Please see
 the publication:

 P. Scherpelz, M. Govoni, I. Hamada, G. Galli; J. Chem. Theory Comput. (2016)
 http://dx.doi.org/10.1021/acs.jctc.6b00114

 If you use these pseudopotentials in your work, we also kindly ask
 that you cite the above publication.

 -----

 This work is licensed under the Creative Commons Attribution-ShareAlike 
 4.0 International License. To view a copy of this license, visit 
 http://creativecommons.org/licenses/by-sa/4.0/ or send a letter to 
 Creative Commons, PO Box 1866, Mountain View, CA 94042, USA.

 The SG15 library is Copyright 2015 The Regents of the University of
 California.  Further modifications of these files are Copyright 2016
 Peter Scherpelz.

    <PP_INPUTFILE>
# ATOM AND REFERENCE CONFIGURATION
# atsym  z    nc    nv    iexc   psfile
  Zn 30.00     3     4     4      upf
#
#   n    l    f        energy (Ha)
    1    0    2.00
    2    0    2.00
    2    1    6.00
    3    0    2.00
    3    1    6.00
    4    0    2.00
    3    2   10.00
#
# PSEUDOPOTENTIAL AND OPTIMIZATION
# lmax
    2
#
#   l,   rc,     ep,   ncon, nbas, qcut
    0    1.97   -4.75    5    8    6.06
    1    2.06   -3.03    5    8    7.62
    2    2.06   -0.37    5    8    7.97
#
# LOCAL POTENTIAL
# lloc, lpopt,  rc(5),   dvloc0
    4    5      1.68       0.00
#
# VANDERBILT-KLEINMAN-BYLANDER PROJECTORs
# l, nproj, debl
    0    2    4.5281
    1    2    2.9870
    2    2    0.6579
#
# MODEL CORE CHARGE
# icmod, fcfact
    0    0.00
#
# LOG DERIVATIVE ANALYSIS
# epsh1, epsh2, depsh
   -5.00    3.00    0.02
#
# OUTPUT GRID
# rlmax, drl
    6.00    0.01
#
# TEST CONFIGURATIONS
# ncnf
    0
# nvcnf
#   n    l    f
    </PP_INPUTFILE>
  </PP_INFO>
  <!--                               -->
  <!-- END OF HUMAN READABLE SECTION -->
  <!--                               -->
    <PP_HEADER
       generated="Generated using ONCVPSP code by D. R. Hamann"
       author="anonymous"
       date="150703"
       comment=""
       element="Zn"
       pseudo_type="NC"
       relativistic="full"
       is_ultrasoft="F"
       is_paw="F"
       is_coulomb="F"
       has_so="T"
       has_wfc="F"
       has_gipaw="F"
       core_correction="F"
       functional="PBE"
       z_valence="   20.00"
       total_psenergy="  -2.00105462094E+02"
       rho_cutoff="   6.01000000000E+00"
       l_max="2"
       l_local="-1"
       mesh_size="   602"
       number_of_wfc="0"
       number_of_proj="10"/>
 <PP_MESH>
   <PP_R type="real"  size=" 602" columns="8">
    0.0000    0.0100    0.0200    0.0300    0.0400    0.0500    0.0600    0.0700
    0.0800    0.0900    0.1000    0.1100    0.1200    0.1300    0.1400    0.1500
    0.1600    0.1700    0.1800    0.1900    0.2000    0.2100    0.2200    0.2300
    0.2400    0.2500    0.2600    0.2700    0.2800    0.2900    0.3000    0.3100
    0.3200    0.3300    0.3400    0.3500    0.3600    0.3700    0.3800    0.3900
    0.4000    0.4100    0.4200    0.4300    0.4400    0.4500    0.4600    0.4700
    0.4800    0.4900    0.5000    0.5100    0.5200    0.5300    0.5400    0.5500
    0.5600    0.5700    0.5800    0.5900    0.6000    0.6100    0.6200    0.6300
    0.6400    0.6500    0.6600    0.6700    0.6800    0.6900    0.7000    0.7100
    0.7200    0.7300    0.7400    0.7500    0.7600    0.7700    0.7800    0.7900
    0.8000    0.8100    0.8200    0.8300    0.8400    0.8500    0.8600    0.8700
    0.8800    0.8900    0.9000    0.9100    0.9200    0.9300    0.9400    0.9500
    0.9600    0.9700    0.9800    0.9900    1.0000    1.0100    1.0200    1.0300
    1.0400    1.0500    1.0600    1.0700    1.0800    1.0900    1.1000    1.1100
    1.1200    1.1300    1.1400    1.1500    1.1600    1.1700    1.1800    1.1900
    1.2000    1.2100    1.2200    1.2300    1.2400    1.2500    1.2600    1.2700
    1.2800    1.2900    1.3000    1.3100    1.3200    1.3300    1.3400    1.3500
    1.3600    1.3700    1.3800    1.3900    1.4000    1.4100    1.4200    1.4300
    1.4400    1.4500    1.4600    1.4700    1.4800    1.4900    1.5000    1.5100
    1.5200    1.5300    1.5400    1.5500    1.5600    1.5700    1.5800    1.5900
    1.6000    1.6100    1.6200    1.6300    1.6400    1.6500    1.6600    1.6700
    1.6800    1.6900    1.7000    1.7100    1.7200    1.7300    1.7400    1.7500
    1.7600    1.7700    1.7800    1.7900    1.8000    1.8100    1.8200    1.8300
    1.8400    1.8500    1.8600    1.8700    1.8800    1.8900    1.9000    1.9100
    1.9200    1.9300    1.9400    1.9500    1.9600    1.9700    1.9800    1.9900
    2.0000    2.0100    2.0200    2.0300    2.0400    2.0500    2.0600    2.0700
    2.0800    2.0900    2.1000    2.1100    2.1200    2.1300    2.1400    2.1500
    2.1600    2.1700    2.1800    2.1900    2.2000    2.2100    2.2200    2.2300
    2.2400    2.2500    2.2600    2.2700    2.2800    2.2900    2.3000    2.3100
    2.3200    2.3300    2.3400    2.3500    2.3600    2.3700    2.3800    2.3900
    2.4000    2.4100    2.4200    2.4300    2.4400    2.4500    2.4600    2.4700
    2.4800    2.4900    2.5000    2.5100    2.5200    2.5300    2.5400    2.5500
    2.5600    2.5700    2.5800    2.5900    2.6000    2.6100    2.6200    2.6300
    2.6400    2.6500    2.6600    2.6700    2.6800    2.6900    2.7000    2.7100
    2.7200    2.7300    2.7400    2.7500    2.7600    2.7700    2.7800    2.7900
    2.8000    2.8100    2.8200    2.8300    2.8400    2.8500    2.8600    2.8700
    2.8800    2.8900    2.9000    2.9100    2.9200    2.9300    2.9400    2.9500
    2.9600    2.9700    2.9800    2.9900    3.0000    3.0100    3.0200    3.0300
    3.0400    3.0500    3.0600    3.0700    3.0800    3.0900    3.1000    3.1100
    3.1200    3.1300    3.1400    3.1500    3.1600    3.1700    3.1800    3.1900
    3.2000    3.2100    3.2200    3.2300    3.2400    3.2500    3.2600    3.2700
    3.2800    3.2900    3.3000    3.3100    3.3200    3.3300    3.3400    3.3500
    3.3600    3.3700    3.3800    3.3900    3.4000    3.4100    3.4200    3.4300
    3.4400    3.4500    3.4600    3.4700    3.4800    3.4900    3.5000    3.5100
    3.5200    3.5300    3.5400    3.5500    3.5600    3.5700    3.5800    3.5900
    3.6000    3.6100    3.6200    3.6300    3.6400    3.6500    3.6600    3.6700
    3.6800    3.6900    3.7000    3.7100    3.7200    3.7300    3.7400    3.7500
    3.7600    3.7700    3.7800    3.7900    3.8000    3.8100    3.8200    3.8300
    3.8400    3.8500    3.8600    3.8700    3.8800    3.8900    3.9000    3.9100
    3.9200    3.9300    3.9400    3.9500    3.9600    3.9700    3.9800    3.9900
    4.0000    4.0100    4.0200    4.0300    4.0400    4.0500    4.0600    4.0700
    4.0800    4.0900    4.1000    4.1100    4.1200    4.1300    4.1400    4.1500
    4.1600    4.1700    4.1800    4.1900    4.2000    4.2100    4.2200    4.2300
    4.2400    4.2500    4.2600    4.2700    4.2800    4.2900    4.3000    4.3100
    4.3200    4.3300    4.3400    4.3500    4.3600    4.3700    4.3800    4.3900
    4.4000    4.4100    4.4200    4.4300    4.4400    4.4500    4.4600    4.4700
    4.4800    4.4900    4.5000    4.5100    4.5200    4.5300    4.5400    4.5500
    4.5600    4.5700    4.5800    4.5900    4.6000    4.6100    4.6200    4.6300
    4.6400    4.6500    4.6600    4.6700    4.6800    4.6900    4.7000    4.7100
    4.7200    4.7300    4.7400    4.7500    4.7600    4.7700    4.7800    4.7900
    4.8000    4.8100    4.8200    4.8300    4.8400    4.8500    4.8600    4.8700
    4.8800    4.8900    4.9000    4.9100    4.9200    4.9300    4.9400    4.9500
    4.9600    4.9700    4.9800    4.9900    5.0000    5.0100    5.0200    5.0300
    5.0400    5.0500    5.0600    5.0700    5.0800    5.0900    5.1000    5.1100
    5.1200    5.1300    5.1400    5.1500    5.1600    5.1700    5.1800    5.1900
    5.2000    5.2100    5.2200    5.2300    5.2400    5.2500    5.2600    5.2700
    5.2800    5.2900    5.3000    5.3100    5.3200    5.3300    5.3400    5.3500
    5.3600    5.3700    5.3800    5.3900    5.4000    5.4100    5.4200    5.4300
    5.4400    5.4500    5.4600    5.4700    5.4800    5.4900    5.5000    5.5100
    5.5200    5.5300    5.5400    5.5500    5.5600    5.5700    5.5800    5.5900
    5.6000    5.6100    5.6200    5.6300    5.6400    5.6500    5.6600    5.6700
    5.6800    5.6900    5.7000    5.7100    5.7200    5.7300    5.7400    5.7500
    5.7600    5.7700    5.7800    5.7900    5.8000    5.8100    5.8200    5.8300
    5.8400    5.8500    5.8600    5.8700    5.8800    5.8900    5.9000    5.9100
    5.9200    5.9300    5.9400    5.9500    5.9600    5.9700    5.9800    5.9900
    6.0000    6.0100
   </PP_R>
   <PP_RAB type="real"  size=" 602" columns="8">
    0.0100    0.0100    0.0100    0.0100    0.0100    0.0100    0.0100    0.0100
    0.0100    0.0100    0.0100    0.0100    0.0100    0.0100    0.0100    0.0100
    0.0100    0.0100    0.0100    0.0100    0.0100    0.0100    0.0100    0.0100
    0.0100    0.0100    0.0100    0.0100    0.0100    0.0100    0.0100    0.0100
    0.0100    0.0100    0.0100    0.0100    0.0100    0.0100    0.0100    0.0100
    0.0100    0.0100    0.0100    0.0100    0.0100    0.0100    0.0100    0.0100
    0.0100    0.0100    0.0100    0.0100    0.0100    0.0100    0.0100    0.0100
    0.0100    0.0100    0.0100    0.0100    0.0100    0.0100    0.0100    0.0100
    0.0100    0.0100    0.0100    0.0100    0.0100    0.0100    0.0100    0.0100
    0.0100    0.0100    0.0100    0.0100    0.0100    0.0100    0.0100    0.0100
    0.0100    0.0100    0.0100    0.0100    0.0100    0.0100    0.0100    0.0100
    0.0100    0.0100    0.0100    0.0100    0.0100    0.0100    0.0100    0.0100
    0.0100    0.0100    0.0100    0.0100    0.0100    0.0100    0.0100    0.0100
    0.0100    0.0100    0.0100    0.0100    0.0100    0.0100    0.0100    0.0100
    0.0100    0.0100    0.0100    0.0100    0.0100    0.0100    0.0100    0.0100
    0.0100    0.0100    0.0100    0.0100    0.0100    0.0100    0.0100    0.0100
    0.0100    0.0100    0.0100    0.0100    0.0100    0.0100    0.0100    0.0100
    0.0100    0.0100    0.0100    0.0100    0.0100    0.0100    0.0100    0.0100
    0.0100    0.0100    0.0100    0.0100    0.0100    0.0100    0.0100    0.0100
    0.0100    0.0100    0.0100    0.0100    0.0100    0.0100    0.0100    0.0100
    0.0100    0.0100    0.0100    0.0100    0.0100    0.0100    0.0100    0.0100
    0.0100    0.0100    0.0100    0.0100    0.0100    0.0100    0.0100    0.0100
    0.0100    0.0100    0.0100    0.0100    0.0100    0.0100    0.0100    0.0100
    0.0100    0.0100    0.0100    0.0100    0.0100    0.0100    0.0100    0.0100
    0.0100    0.0100    0.0100    0.0100    0.0100    0.0100    0.0100    0.0100
    0.0100    0.0100    0.0100    0.0100    0.0100    0.0100    0.0100    0.0100
    0.0100    0.0100    0.0100    0.0100    0.0100    0.0100    0.0100    0.0100
    0.0100    0.0100    0.0100    0.0100    0.0100    0.0100    0.0100    0.0100
    0.0100    0.0100    0.0100    0.0100    0.0100    0.0100    0.0100    0.0100
    0.0100    0.0100    0.0100    0.0100    0.0100    0.0100    0.0100    0.0100
    0.0100    0.0100    0.0100    0.0100    0.0100    0.0100    0.0100    0.0100
    0.0100    0.0100    0.0100    0.0100    0.0100    0.0100    0.0100    0.0100
    0.0100    0.0100    0.0100    0.0100    0.0100    0.0100    0.0100    0.0100
    0.0100    0.0100    0.0100    0.0100    0.0100    0.0100    0.0100    0.0100
    0.0100    0.0100    0.0100    0.0100    0.0100    0.0100    0.0100    0.0100
    0.0100    0.0100    0.0100    0.0100    0.0100    0.0100    0.0100    0.0100
    0.0100    0.0100    0.0100    0.0100    0.0100    0.0100    0.0100    0.0100
    0.0100    0.0100    0.0100    0.0100    0.0100    0.0100    0.0100    0.0100
    0.0100    0.0100    0.0100    0.0100    0.0100    0.0100    0.0100    0.0100
    0.0100    0.0100    0.0100    0.0100    0.0100    0.0100    0.0100    0.0100
    0.0100    0.0100    0.0100    0.0100    0.0100    0.0100    0.0100    0.0100
    0.0100    0.0100    0.0100    0.0100    0.0100    0.0100    0.0100    0.0100
    0.0100    0.0100    0.0100    0.0100    0.0100    0.0100    0.0100    0.0100
    0.0100    0.0100    0.0100    0.0100    0.0100    0.0100    0.0100    0.0100
    0.0100    0.0100    0.0100    0.0100    0.0100    0.0100    0.0100    0.0100
    0.0100    0.0100    0.0100    0.0100    0.0100    0.0100    0.0100    0.0100
    0.0100    0.0100    0.0100    0.0100    0.0100    0.0100    0.0100    0.0100
    0.0100    0.0100    0.0100    0.0100    0.0100    0.0100    0.0100    0.0100
    0.0100    0.0100    0.0100    0.0100    0.0100    0.0100    0.0100    0.0100
    0.0100    0.0100    0.0100    0.0100    0.0100    0.0100    0.0100    0.0100
    0.0100    0.0100    0.0100    0.0100    0.0100    0.0100    0.0100    0.0100
    0.0100    0.0100    0.0100    0.0100    0.0100    0.0100    0.0100    0.0100
    0.0100    0.0100    0.0100    0.0100    0.0100    0.0100    0.0100    0.0100
    0.0100    0.0100    0.0100    0.0100    0.0100    0.0100    0.0100    0.0100
    0.0100    0.0100    0.0100    0.0100    0.0100    0.0100    0.0100    0.0100
    0.0100    0.0100    0.0100    0.0100    0.0100    0.0100    0.0100    0.0100
    0.0100    0.0100    0.0100    0.0100    0.0100    0.0100    0.0100    0.0100
    0.0100    0.0100    0.0100    0.0100    0.0100    0.0100    0.0100    0.0100
    0.0100    0.0100    0.0100    0.0100    0.0100    0.0100    0.0100    0.0100
    0.0100    0.0100    0.0100    0.0100    0.0100    0.0100    0.0100    0.0100
    0.0100    0.0100    0.0100    0.0100    0.0100    0.0100    0.0100    0.0100
    0.0100    0.0100    0.0100    0.0100    0.0100    0.0100    0.0100    0.0100
    0.0100    0.0100    0.0100    0.0100    0.0100    0.0100    0.0100    0.0100
    0.0100    0.0100    0.0100    0.0100    0.0100    0.0100    0.0100    0.0100
    0.0100    0.0100    0.0100    0.0100    0.0100    0.0100    0.0100    0.0100
    0.0100    0.0100    0.0100    0.0100    0.0100    0.0100    0.0100    0.0100
    0.0100    0.0100    0.0100    0.0100    0.0100    0.0100    0.0100    0.0100
    0.0100    0.0100    0.0100    0.0100    0.0100    0.0100    0.0100    0.0100
    0.0100    0.0100    0.0100    0.0100    0.0100    0.0100    0.0100    0.0100
    0.0100    0.0100    0.0100    0.0100    0.0100    0.0100    0.0100    0.0100
    0.0100    0.0100    0.0100    0.0100    0.0100    0.0100    0.0100    0.0100
    0.0100    0.0100    0.0100    0.0100    0.0100    0.0100    0.0100    0.0100
    0.0100    0.0100    0.0100    0.0100    0.0100    0.0100    0.0100    0.0100
    0.0100    0.0100    0.0100    0.0100    0.0100    0.0100    0.0100    0.0100
    0.0100    0.0100    0.0100    0.0100    0.0100    0.0100    0.0100    0.0100
    0.0100    0.0100
   </PP_RAB>
 </PP_MESH>
  <PP_LOCAL type="real"  size=" 602" columns="4">
   -5.4463836339E+01   -5.4462881586E+01   -5.4460257470E+01   -5.4455675925E+01
   -5.4448848887E+01   -5.4439416599E+01   -5.4426982077E+01   -5.4411145070E+01
   -5.4391531323E+01   -5.4367814475E+01   -5.4339729609E+01   -5.4307078888E+01
   -5.4269730657E+01   -5.4227613825E+01   -5.4180709381E+01   -5.4129040607E+01
   -5.4072663220E+01   -5.4011656235E+01   -5.3946114014E+01   -5.3876139680E+01
   -5.3801839917E+01   -5.3723321017E+01   -5.3640686012E+01   -5.3554032703E+01
   -5.3463452387E+01   -5.3369029114E+01   -5.3270839353E+01   -5.3168951905E+01
   -5.3063428029E+01   -5.2954321659E+01   -5.2841679692E+01   -5.2725542305E+01
   -5.2605943266E+01   -5.2482910230E+01   -5.2356465004E+01   -5.2226623808E+01
   -5.2093397462E+01   -5.1956791591E+01   -5.1816806797E+01   -5.1673438794E+01
   -5.1526678586E+01   -5.1376512641E+01   -5.1222923087E+01   -5.1065887973E+01
   -5.0905381581E+01   -5.0741374826E+01   -5.0573835759E+01   -5.0402730184E+01
   -5.0228022402E+01   -5.0049676079E+01   -4.9867655286E+01   -4.9681925624E+01
   -4.9492455474E+01   -4.9299217434E+01   -4.9102189581E+01   -4.8901357111E+01
   -4.8696713567E+01   -4.8488262318E+01   -4.8276017662E+01   -4.8060006032E+01
   -4.7840266478E+01   -4.7616851806E+01   -4.7389828104E+01   -4.7159275445E+01
   -4.6925287240E+01   -4.6687969442E+01   -4.6447440272E+01   -4.6203828845E+01
   -4.5957273947E+01   -4.5707922714E+01   -4.5455929614E+01   -4.5201454668E+01
   -4.4944662231E+01   -4.4685719710E+01   -4.4424796370E+01   -4.4162062265E+01
   -4.3897687253E+01   -4.3631840185E+01   -4.3364688219E+01   -4.3096396250E+01
   -4.2827126461E+01   -4.2557037958E+01   -4.2286286507E+01   -4.2015024325E+01
   -4.1743399938E+01   -4.1471558068E+01   -4.1199639557E+01   -4.0927781303E+01
   -4.0656116204E+01   -4.0384773102E+01   -4.0113876720E+01   -3.9843547595E+01
   -3.9573901985E+01   -3.9305051776E+01   -3.9037104358E+01   -3.8770162500E+01
   -3.8504324327E+01   -3.8239682847E+01   -3.7976325952E+01   -3.7714336280E+01
   -3.7453790976E+01   -3.7194761509E+01   -3.6937313505E+01   -3.6681506930E+01
   -3.6427394730E+01   -3.6175023809E+01   -3.5924434588E+01   -3.5675660935E+01
   -3.5428730768E+01   -3.5183664064E+01   -3.4940474831E+01   -3.4699170768E+01
   -3.4459753972E+01   -3.4222219822E+01   -3.3986558299E+01   -3.3752754834E+01
   -3.3520790984E+01   -3.3290643647E+01   -3.3062287371E+01   -3.2835694914E+01
   -3.2610837533E+01   -3.2387686412E+01   -3.2166213694E+01   -3.1946392146E+01
   -3.1728198201E+01   -3.1511611221E+01   -3.1296612906E+01   -3.1083191500E+01
   -3.0871339451E+01   -3.0661052192E+01   -3.0452333559E+01   -3.0245190951E+01
   -3.0039635219E+01   -2.9835685116E+01   -2.9633361076E+01   -2.9432687788E+01
   -2.9233693995E+01   -2.9036409261E+01   -2.8840866227E+01   -2.8647097455E+01
   -2.8455136411E+01   -2.8265014922E+01   -2.8076764413E+01   -2.7890413357E+01
   -2.7705986702E+01   -2.7523508186E+01   -2.7342992603E+01   -2.7164455836E+01
   -2.6987901912E+01   -2.6813333704E+01   -2.6640745773E+01   -2.6470125590E+01
   -2.6301457868E+01   -2.6134715126E+01   -2.5969872276E+01   -2.5806890224E+01
   -2.5645733441E+01   -2.5486357080E+01   -2.5328718128E+01   -2.5172769871E+01
   -2.5018467310E+01   -2.4865765523E+01   -2.4714623163E+01   -2.4565000597E+01
   -2.4416864422E+01   -2.4270183077E+01   -2.4124933169E+01   -2.3981092695E+01
   -2.3838648018E+01   -2.3697586280E+01   -2.3557902399E+01   -2.3419592376E+01
   -2.3282657637E+01   -2.3147101601E+01   -2.3012929183E+01   -2.2880147225E+01
   -2.2748761417E+01   -2.2618778038E+01   -2.2490201666E+01   -2.2363034684E+01
   -2.2237279418E+01   -2.2112932150E+01   -2.1989992277E+01   -2.1868449202E+01
   -2.1748298702E+01   -2.1629524619E+01   -2.1512116564E+01   -2.1396056029E+01
   -2.1281326137E+01   -2.1167906796E+01   -2.1055776009E+01   -2.0944912298E+01
   -2.0835290632E+01   -2.0726887925E+01   -2.0619678465E+01   -2.0513637276E+01
   -2.0408739516E+01   -2.0304959939E+01   -2.0202273981E+01   -2.0100658433E+01
   -2.0000088199E+01   -1.9900543245E+01   -1.9802000283E+01   -1.9704440344E+01
   -1.9607844868E+01   -1.9512194497E+01   -1.9417475749E+01   -1.9323671249E+01
   -1.9230768646E+01   -1.9138755027E+01   -1.9047617276E+01   -1.8957343749E+01
   -1.8867921972E+01   -1.8779340184E+01   -1.8691586348E+01   -1.8604648485E+01
   -1.8518515859E+01   -1.8433176881E+01   -1.8348620911E+01   -1.8264837320E+01
   -1.8181815082E+01   -1.8099544428E+01   -1.8018014878E+01   -1.7937216456E+01
   -1.7857139691E+01   -1.7777774437E+01   -1.7699111660E+01   -1.7621142086E+01
   -1.7543856170E+01   -1.7467245465E+01   -1.7391300906E+01   -1.7316013750E+01
   -1.7241375842E+01   -1.7167378425E+01   -1.7094013480E+01   -1.7021273126E+01
   -1.6949148925E+01   -1.6877633498E+01   -1.6806719202E+01   -1.6736398019E+01
   -1.6666663036E+01   -1.6597506843E+01   -1.6528921953E+01   -1.6460901735E+01
   -1.6393439074E+01   -1.6326526951E+01   -1.6260159012E+01   -1.6194328438E+01
   -1.6129028617E+01   -1.6064253470E+01   -1.5999996475E+01   -1.5936251370E+01
   -1.5873012350E+01   -1.5810273190E+01   -1.5748027925E+01   -1.5686271024E+01
   -1.5624996560E+01   -1.5564198813E+01   -1.5503872526E+01   -1.5444012069E+01
   -1.5384611918E+01   -1.5325667093E+01   -1.5267172265E+01   -1.5209122067E+01
   -1.5151511788E+01   -1.5094336399E+01   -1.5037590647E+01   -1.4981270092E+01
   -1.4925369975E+01   -1.4869885217E+01   -1.4814811551E+01   -1.4760144468E+01
   -1.4705879184E+01   -1.4652011448E+01   -1.4598537041E+01   -1.4545451479E+01
   -1.4492750489E+01   -1.4440430141E+01   -1.4388486256E+01   -1.4336914513E+01
   -1.4285711257E+01   -1.4234872556E+01   -1.4184394213E+01   -1.4134272646E+01
   -1.4084504169E+01   -1.4035084885E+01   -1.3986011088E+01   -1.3937279383E+01
   -1.3888886187E+01   -1.3840827647E+01   -1.3793100646E+01   -1.3745701776E+01
   -1.3698627451E+01   -1.3651874398E+01   -1.3605439501E+01   -1.3559319487E+01
   -1.3513510874E+01   -1.3468010831E+01   -1.3422816260E+01   -1.3377923905E+01
   -1.3333330765E+01   -1.3289034025E+01   -1.3245030731E+01   -1.3201317666E+01
   -1.3157892259E+01   -1.3114751705E+01   -1.3071893095E+01   -1.3029313563E+01
   -1.2987010611E+01   -1.2944981556E+01   -1.2903223529E+01   -1.2861734017E+01
   -1.2820510553E+01   -1.2779550580E+01   -1.2738851289E+01   -1.2698410468E+01
   -1.2658225690E+01   -1.2618294462E+01   -1.2578614209E+01   -1.2539182814E+01
   -1.2499997948E+01   -1.2461057184E+01   -1.2422358182E+01   -1.2383898881E+01
   -1.2345677062E+01   -1.2307690369E+01   -1.2269936663E+01   -1.2232413943E+01
   -1.2195120095E+01   -1.2158052845E+01   -1.2121210213E+01   -1.2084590271E+01
   -1.2048191002E+01   -1.2012010220E+01   -1.1976046075E+01   -1.1940296714E+01
   -1.1904760215E+01   -1.1869434487E+01   -1.1834317775E+01   -1.1799408312E+01
   -1.1764704264E+01   -1.1730203643E+01   -1.1695904758E+01   -1.1661805934E+01
   -1.1627905423E+01   -1.1594201344E+01   -1.1560692042E+01   -1.1527375942E+01
   -1.1494251378E+01   -1.1461316579E+01   -1.1428569905E+01   -1.1396009881E+01
   -1.1363634921E+01   -1.1331443372E+01   -1.1299433581E+01   -1.1267604182E+01
   -1.1235953662E+01   -1.1204480494E+01   -1.1173182989E+01   -1.1142059893E+01
   -1.1111109764E+01   -1.1080331156E+01   -1.1049722471E+01   -1.1019282424E+01
   -1.0989009688E+01   -1.0958902885E+01   -1.0928960549E+01   -1.0899181310E+01
   -1.0869563965E+01   -1.0840107204E+01   -1.0810809703E+01   -1.0781669984E+01
   -1.0752686975E+01   -1.0723859424E+01   -1.0695186080E+01   -1.0666665576E+01
   -1.0638296737E+01   -1.0610078446E+01   -1.0582009509E+01   -1.0554088711E+01
   -1.0526314727E+01   -1.0498686581E+01   -1.0471203135E+01   -1.0443863251E+01
   -1.0416665688E+01   -1.0389609365E+01   -1.0362693276E+01   -1.0335916336E+01
   -1.0309277461E+01   -1.0282775399E+01   -1.0256409277E+01   -1.0230178065E+01
   -1.0204080731E+01   -1.0178116185E+01   -1.0152283346E+01   -1.0126581346E+01
   -1.0101009199E+01   -1.0075565919E+01   -1.0050250419E+01   -1.0025061775E+01
   -9.9999991146E+00   -9.9750614985E+00   -9.9502479870E+00   -9.9255575036E+00
   -9.9009892540E+00   -9.8765423696E+00   -9.8522159546E+00   -9.8280091110E+00
   -9.8039207897E+00   -9.7799502915E+00   -9.7560967624E+00   -9.7323593481E+00
   -9.7087371741E+00   -9.6852292761E+00   -9.6618349747E+00   -9.6385534556E+00
   -9.6153839044E+00   -9.5923254778E+00   -9.5693772732E+00   -9.5465386377E+00
   -9.5238087951E+00   -9.5011869688E+00   -9.4786723546E+00   -9.4562640889E+00
   -9.4339615525E+00   -9.4117640052E+00   -9.3896707069E+00   -9.3676808991E+00
   -9.3457937367E+00   -9.3240086405E+00   -9.3023249049E+00   -9.2807418241E+00
   -9.2592586925E+00   -9.2378746639E+00   -9.2165892052E+00   -9.1954016434E+00
   -9.1743113059E+00   -9.1533175197E+00   -9.1324194988E+00   -9.1116166822E+00
   -9.0909084548E+00   -9.0702941749E+00   -9.0497732012E+00   -9.0293448139E+00
   -9.0090084069E+00   -8.9887634278E+00   -8.9686092649E+00   -8.9485453069E+00
   -8.9285709067E+00   -8.9086853968E+00   -8.8888882920E+00   -8.8691790094E+00
   -8.8495569658E+00   -8.8300215781E+00   -8.8105721488E+00   -8.7912082178E+00
   -8.7719292441E+00   -8.7527346717E+00   -8.7336239448E+00   -8.7145964496E+00
   -8.6956516288E+00   -8.6767890225E+00   -8.6580081009E+00   -8.6393083338E+00
   -8.6206891913E+00   -8.6021500270E+00   -8.5836904434E+00   -8.5653099417E+00
   -8.5470080167E+00   -8.5287841629E+00   -8.5106378287E+00   -8.4925684881E+00
   -8.4745757346E+00   -8.4566590866E+00   -8.4388180623E+00   -8.4210521798E+00
   -8.4033608694E+00   -8.3857437227E+00   -8.3682003111E+00   -8.3507301753E+00
   -8.3333328559E+00   -8.3160078889E+00   -8.2987547106E+00   -8.2815729926E+00
   -8.2644622968E+00   -8.2474221854E+00   -8.2304522202E+00   -8.2135519328E+00
   -8.1967208385E+00   -8.1799586021E+00   -8.1632648062E+00   -8.1466390332E+00
   -8.1300808655E+00   -8.1135898380E+00   -8.0971655253E+00   -8.0808075927E+00
   -8.0645156420E+00   -8.0482892753E+00   -8.0321280945E+00   -8.0160316453E+00
   -7.9999995425E+00   -7.9840314590E+00   -7.9681270153E+00   -7.9522858318E+00
   -7.9365075291E+00   -7.9207916708E+00   -7.9051378939E+00   -7.8895458859E+00
   -7.8740152849E+00   -7.8585457290E+00   -7.8431368564E+00   -7.8277882553E+00
   -7.8124995680E+00   -7.7972705030E+00   -7.7821007154E+00   -7.7669898601E+00
   -7.7519375921E+00   -7.7369435305E+00   -7.7220073068E+00   -7.7071286569E+00
   -7.6923072519E+00   -7.6775427628E+00   -7.6628348608E+00   -7.6481832014E+00
   -7.6335873911E+00   -7.6190471984E+00   -7.6045623098E+00   -7.5901324116E+00
   -7.5757571903E+00   -7.5614363323E+00   -7.5471694400E+00   -7.5329562848E+00
   -7.5187965793E+00   -7.5046900244E+00   -7.4906363213E+00   -7.4766351708E+00
   -7.4626862240E+00   -7.4487891950E+00   -7.4349438427E+00   -7.4211498822E+00
   -7.4074070283E+00   -7.3937149961E+00   -7.3800734906E+00   -7.3664821568E+00
   -7.3529408039E+00   -7.3394491600E+00   -7.3260069534E+00   -7.3126139124E+00
   -7.2992697652E+00   -7.2859741858E+00   -7.2727269285E+00   -7.2595277695E+00
   -7.2463764500E+00   -7.2332727107E+00   -7.2202162925E+00   -7.2072069344E+00
   -7.1942442951E+00   -7.1813282116E+00   -7.1684584370E+00   -7.1556347242E+00
   -7.1428568262E+00   -7.1301244960E+00   -7.1174374553E+00   -7.1047954379E+00
   -7.0921982626E+00   -7.0796456938E+00   -7.0671374959E+00   -7.0546734336E+00
   -7.0422532713E+00   -7.0298767214E+00   -7.0175435754E+00   -7.0052536404E+00
   -6.9930066917E+00   -6.9808025049E+00   -6.9686408554E+00   -6.9565215186E+00
   -6.9444442050E+00   -6.9324087469E+00   -6.9204149465E+00   -6.9084625898E+00
   -6.8965514625E+00   -6.8846813507E+00   -6.8728520402E+00   -6.8610632459E+00
   -6.8493148256E+00   -6.8376065830E+00   -6.8259383141E+00   -6.8143098148E+00
   -6.8027208809E+00   -6.7911713084E+00   -6.7796608226E+00   -6.7681892917E+00
   -6.7567565278E+00   -6.7453623362E+00   -6.7340065225E+00   -6.7226888919E+00
   -6.7114092499E+00   -6.7001673380E+00   -6.6889630212E+00   -6.6777961256E+00
   -6.6666664658E+00   -6.6555738562E+00
  </PP_LOCAL>
 <PP_NONLOCAL>
   <PP_BETA.1
       type="real"
       size=" 602"
       columns="4"
       index="1"
       angular_momentum="0"
       cutoff_radius_index=" 210"
       cutoff_radius="    2.0900000000E+00" >
    0.0000000000E+00   -4.3822830852E-02   -8.7592558050E-02   -1.3125619962E-01
   -1.7476101641E-01   -2.1805463212E-01   -2.6108515177E-01   -3.0380127790E-01
   -3.4615242426E-01   -3.8808882622E-01   -4.2956164763E-01   -4.7052308361E-01
   -5.1092645878E-01   -5.5072632068E-01   -5.8987852792E-01   -6.2834033279E-01
   -6.6607045795E-01   -7.0302916710E-01   -7.3917832924E-01   -7.7448147658E-01
   -8.0890385566E-01   -8.4241247198E-01   -8.7497612768E-01   -9.0656545261E-01
   -9.3715292864E-01   -9.6671290741E-01   -9.9522162141E-01   -1.0226571890E+00
   -1.0489996130E+00   -1.0742307735E+00   -1.0983344150E+00   -1.1212961281E+00
   -1.1431033265E+00   -1.1637452188E+00   -1.1832127764E+00   -1.2014986974E+00
   -1.2185973663E+00   -1.2345048122E+00   -1.2492186629E+00   -1.2627380966E+00
   -1.2750637932E+00   -1.2861978830E+00   -1.2961438951E+00   -1.3049067048E+00
   -1.3124924811E+00   -1.3189086348E+00   -1.3241637663E+00   -1.3282676155E+00
   -1.3312310139E+00   -1.3330658333E+00   -1.3337849421E+00   -1.3334021638E+00
   -1.3319322340E+00   -1.3293907568E+00   -1.3257941805E+00   -1.3211597500E+00
   -1.3155054882E+00   -1.3088501605E+00   -1.3012132555E+00   -1.2926149560E+00
   -1.2830761317E+00   -1.2726183039E+00   -1.2612636538E+00   -1.2490349903E+00
   -1.2359557492E+00   -1.2220499917E+00   -1.2073423820E+00   -1.1918581918E+00