<UPF version="2.0.1">
<PP_INFO>

This pseudopotential file has been produced using the code
ONCVPSP  (Optimized Norm-Conservinng Vanderbilt PSeudopotential)
fully-relativistic version 3.3.0 08/16/2017 by D. R. Hamann
The code is available through a link at URL www.mat-simresearch.com.
Documentation with the package provides a full discription of the
input data below.


While it is not required under the terms of the GNU GPL, it is
suggested that you cite D. R. Hamann, Phys. Rev. B 88, 085117 (2013)
in any publication using these pseudopotentials.

<PP_INPUTFILE>
# ATOM AND REFERENCE CONFIGURATION
# atsym  z   nc   nv     iexc    psfile
Ne 10.00    1    2       4      both
#
#   n    l    f        energy (Ha)
1    0    2.00
2    0    2.00
2    1    6.00
#
# PSEUDOPOTENTIAL AND OPTIMIZATION
# lmax
1
#
#   l,   rc,     ep,   ncon, nbas, qcut
0   1.30000  -1.33781    4    7   9.00000
1   1.50000  -0.48870    4    7   8.80000
#
# LOCAL POTENTIAL
# lloc, lpopt,  rc(5),   dvloc0
4    5   1.30000      0.00000
#
# VANDERBILT-KLEINMAN-BYLANDER PROJECTORs
# l, nproj, debl
0    2   1.50000
1    2   1.49873
#
# MODEL CORE CHARGE
# icmod, fcfact, rcfact
0   0.00000   0.00000
#
# LOG DERIVATIVE ANALYSIS
# epsh1, epsh2, depsh
-12.00   12.00    0.02
#
# OUTPUT GRID
# rlmax, drl
4.00    0.01
#
# TEST CONFIGURATIONS
# ncnf
0
# nvcnf
#   n    l    f
</PP_INPUTFILE>
</PP_INFO>
<!--                               -->
<!-- END OF HUMAN READABLE SECTION -->
<!--                               -->
<PP_HEADER
generated="Generated using ONCVPSP code by D. R. Hamann"
author="anonymous"
date="180506"
comment=""
element="Ne"
pseudo_type="NC"
relativistic="full"
is_ultrasoft="F"
is_paw="F"
is_coulomb="F"
has_so="T"
has_wfc="F"
has_gipaw="F"
core_correction="F"
functional="PBE"
z_valence="    8.00"
total_psenergy="  -6.78316871215E+01"
rho_cutoff="   7.57000000000E+00"
l_max="1"
l_local="-1"
mesh_size="   758"
number_of_wfc="3"
number_of_proj="6"/>
<PP_MESH>
<PP_R type="real"  size=" 758" columns="8">
0.0000    0.0100    0.0200    0.0300    0.0400    0.0500    0.0600    0.0700
0.0800    0.0900    0.1000    0.1100    0.1200    0.1300    0.1400    0.1500
0.1600    0.1700    0.1800    0.1900    0.2000    0.2100    0.2200    0.2300
0.2400    0.2500    0.2600    0.2700    0.2800    0.2900    0.3000    0.3100
0.3200    0.3300    0.3400    0.3500    0.3600    0.3700    0.3800    0.3900
0.4000    0.4100    0.4200    0.4300    0.4400    0.4500    0.4600    0.4700
0.4800    0.4900    0.5000    0.5100    0.5200    0.5300    0.5400    0.5500
0.5600    0.5700    0.5800    0.5900    0.6000    0.6100    0.6200    0.6300
0.6400    0.6500    0.6600    0.6700    0.6800    0.6900    0.7000    0.7100
0.7200    0.7300    0.7400    0.7500    0.7600    0.7700    0.7800    0.7900
0.8000    0.8100    0.8200    0.8300    0.8400    0.8500    0.8600    0.8700
0.8800    0.8900    0.9000    0.9100    0.9200    0.9300    0.9400    0.9500
0.9600    0.9700    0.9800    0.9900    1.0000    1.0100    1.0200    1.0300
1.0400    1.0500    1.0600    1.0700    1.0800    1.0900    1.1000    1.1100
1.1200    1.1300    1.1400    1.1500    1.1600    1.1700    1.1800    1.1900
1.2000    1.2100    1.2200    1.2300    1.2400    1.2500    1.2600    1.2700
1.2800    1.2900    1.3000    1.3100    1.3200    1.3300    1.3400    1.3500
1.3600    1.3700    1.3800    1.3900    1.4000    1.4100    1.4200    1.4300
1.4400    1.4500    1.4600    1.4700    1.4800    1.4900    1.5000    1.5100
1.5200    1.5300    1.5400    1.5500    1.5600    1.5700    1.5800    1.5900
1.6000    1.6100    1.6200    1.6300    1.6400    1.6500    1.6600    1.6700
1.6800    1.6900    1.7000    1.7100    1.7200    1.7300    1.7400    1.7500
1.7600    1.7700    1.7800    1.7900    1.8000    1.8100    1.8200    1.8300
1.8400    1.8500    1.8600    1.8700    1.8800    1.8900    1.9000    1.9100
1.9200    1.9300    1.9400    1.9500    1.9600    1.9700    1.9800    1.9900
2.0000    2.0100    2.0200    2.0300    2.0400    2.0500    2.0600    2.0700
2.0800    2.0900    2.1000    2.1100    2.1200    2.1300    2.1400    2.1500
2.1600    2.1700    2.1800    2.1900    2.2000    2.2100    2.2200    2.2300
2.2400    2.2500    2.2600    2.2700    2.2800    2.2900    2.3000    2.3100
2.3200    2.3300    2.3400    2.3500    2.3600    2.3700    2.3800    2.3900
2.4000    2.4100    2.4200    2.4300    2.4400    2.4500    2.4600    2.4700
2.4800    2.4900    2.5000    2.5100    2.5200    2.5300    2.5400    2.5500
2.5600    2.5700    2.5800    2.5900    2.6000    2.6100    2.6200    2.6300
2.6400    2.6500    2.6600    2.6700    2.6800    2.6900    2.7000    2.7100
2.7200    2.7300    2.7400    2.7500    2.7600    2.7700    2.7800    2.7900
2.8000    2.8100    2.8200    2.8300    2.8400    2.8500    2.8600    2.8700
2.8800    2.8900    2.9000    2.9100    2.9200    2.9300    2.9400    2.9500
2.9600    2.9700    2.9800    2.9900    3.0000    3.0100    3.0200    3.0300
3.0400    3.0500    3.0600    3.0700    3.0800    3.0900    3.1000    3.1100
3.1200    3.1300    3.1400    3.1500    3.1600    3.1700    3.1800    3.1900
3.2000    3.2100    3.2200    3.2300    3.2400    3.2500    3.2600    3.2700
3.2800    3.2900    3.3000    3.3100    3.3200    3.3300    3.3400    3.3500
3.3600    3.3700    3.3800    3.3900    3.4000    3.4100    3.4200    3.4300
3.4400    3.4500    3.4600    3.4700    3.4800    3.4900    3.5000    3.5100
3.5200    3.5300    3.5400    3.5500    3.5600    3.5700    3.5800    3.5900
3.6000    3.6100    3.6200    3.6300    3.6400    3.6500    3.6600    3.6700
3.6800    3.6900    3.7000    3.7100    3.7200    3.7300    3.7400    3.7500
3.7600    3.7700    3.7800    3.7900    3.8000    3.8100    3.8200    3.8300
3.8400    3.8500    3.8600    3.8700    3.8800    3.8900    3.9000    3.9100
3.9200    3.9300    3.9400    3.9500    3.9600    3.9700    3.9800    3.9900
4.0000    4.0100    4.0200    4.0300    4.0400    4.0500    4.0600    4.0700
4.0800    4.0900    4.1000    4.1100    4.1200    4.1300    4.1400    4.1500
4.1600    4.1700    4.1800    4.1900    4.2000    4.2100    4.2200    4.2300
4.2400    4.2500    4.2600    4.2700    4.2800    4.2900    4.3000    4.3100
4.3200    4.3300    4.3400    4.3500    4.3600    4.3700    4.3800    4.3900
4.4000    4.4100    4.4200    4.4300    4.4400    4.4500    4.4600    4.4700
4.4800    4.4900    4.5000    4.5100    4.5200    4.5300    4.5400    4.5500
4.5600    4.5700    4.5800    4.5900    4.6000    4.6100    4.6200    4.6300
4.6400    4.6500    4.6600    4.6700    4.6800    4.6900    4.7000    4.7100
4.7200    4.7300    4.7400    4.7500    4.7600    4.7700    4.7800    4.7900
4.8000    4.8100    4.8200    4.8300    4.8400    4.8500    4.8600    4.8700
4.8800    4.8900    4.9000    4.9100    4.9200    4.9300    4.9400    4.9500
4.9600    4.9700    4.9800    4.9900    5.0000    5.0100    5.0200    5.0300
5.0400    5.0500    5.0600    5.0700    5.0800    5.0900    5.1000    5.1100
5.1200    5.1300    5.1400    5.1500    5.1600    5.1700    5.1800    5.1900
5.2000    5.2100    5.2200    5.2300    5.2400    5.2500    5.2600    5.2700
5.2800    5.2900    5.3000    5.3100    5.3200    5.3300    5.3400    5.3500
5.3600    5.3700    5.3800    5.3900    5.4000    5.4100    5.4200    5.4300
5.4400    5.4500    5.4600    5.4700    5.4800    5.4900    5.5000    5.5100
5.5200    5.5300    5.5400    5.5500    5.5600    5.5700    5.5800    5.5900
5.6000    5.6100    5.6200    5.6300    5.6400    5.6500    5.6600    5.6700
5.6800    5.6900    5.7000    5.7100    5.7200    5.7300    5.7400    5.7500
5.7600    5.7700    5.7800    5.7900    5.8000    5.8100    5.8200    5.8300
5.8400    5.8500    5.8600    5.8700    5.8800    5.8900    5.9000    5.9100
5.9200    5.9300    5.9400    5.9500    5.9600    5.9700    5.9800    5.9900
6.0000    6.0100    6.0200    6.0300    6.0400    6.0500    6.0600    6.0700
6.0800    6.0900    6.1000    6.1100    6.1200    6.1300    6.1400    6.1500
6.1600    6.1700    6.1800    6.1900    6.2000    6.2100    6.2200    6.2300
6.2400    6.2500    6.2600    6.2700    6.2800    6.2900    6.3000    6.3100
6.3200    6.3300    6.3400    6.3500    6.3600    6.3700    6.3800    6.3900
6.4000    6.4100    6.4200    6.4300    6.4400    6.4500    6.4600    6.4700
6.4800    6.4900    6.5000    6.5100    6.5200    6.5300    6.5400    6.5500
6.5600    6.5700    6.5800    6.5900    6.6000    6.6100    6.6200    6.6300
6.6400    6.6500    6.6600    6.6700    6.6800    6.6900    6.7000    6.7100
6.7200    6.7300    6.7400    6.7500    6.7600    6.7700    6.7800    6.7900
6.8000    6.8100    6.8200    6.8300    6.8400    6.8500    6.8600    6.8700
6.8800    6.8900    6.9000    6.9100    6.9200    6.9300    6.9400    6.9500
6.9600    6.9700    6.9800    6.9900    7.0000    7.0100    7.0200    7.0300
7.0400    7.0500    7.0600    7.0700    7.0800    7.0900    7.1000    7.1100
7.1200    7.1300    7.1400    7.1500    7.1600    7.1700    7.1800    7.1900
7.2000    7.2100    7.2200    7.2300    7.2400    7.2500    7.2600    7.2700
7.2800    7.2900    7.3000    7.3100    7.3200    7.3300    7.3400    7.3500
7.3600    7.3700    7.3800    7.3900    7.4000    7.4100    7.4200    7.4300
7.4400    7.4500    7.4600    7.4700    7.4800    7.4900    7.5000    7.5100
7.5200    7.5300    7.5400    7.5500    7.5600    7.5700
</PP_R>
<PP_RAB type="real"  size=" 758" columns="8">
0.0100    0.0100    0.0100    0.0100    0.0100    0.0100    0.0100    0.0100
0.0100    0.0100    0.0100    0.0100    0.0100    0.0100    0.0100    0.0100
0.0100    0.0100    0.0100    0.0100    0.0100    0.0100    0.0100    0.0100
0.0100    0.0100    0.0100    0.0100    0.0100    0.0100    0.0100    0.0100
0.0100    0.0100    0.0100    0.0100    0.0100    0.0100    0.0100    0.0100
0.0100    0.0100    0.0100    0.0100    0.0100    0.0100    0.0100    0.0100
0.0100    0.0100    0.0100    0.0100    0.0100    0.0100    0.0100    0.0100
0.0100    0.0100    0.0100    0.0100    0.0100    0.0100    0.0100    0.0100
0.0100    0.0100    0.0100    0.0100    0.0100    0.0100    0.0100    0.0100
0.0100    0.0100    0.0100    0.0100    0.0100    0.0100    0.0100    0.0100
0.0100    0.0100    0.0100    0.0100    0.0100    0.0100    0.0100    0.0100
0.0100    0.0100    0.0100    0.0100    0.0100    0.0100    0.0100    0.0100
0.0100    0.0100    0.0100    0.0100    0.0100    0.0100    0.0100    0.0100
0.0100    0.0100    0.0100    0.0100    0.0100    0.0100    0.0100    0.0100
0.0100    0.0100    0.0100    0.0100    0.0100    0.0100    0.0100    0.0100
0.0100    0.0100    0.0100    0.0100    0.0100    0.0100    0.0100    0.0100
0.0100    0.0100    0.0100    0.0100    0.0100    0.0100    0.0100    0.0100
0.0100    0.0100    0.0100    0.0100    0.0100    0.0100    0.0100    0.0100
0.0100    0.0100    0.0100    0.0100    0.0100    0.0100    0.0100    0.0100
0.0100    0.0100    0.0100    0.0100    0.0100    0.0100    0.0100    0.0100
0.0100    0.0100    0.0100    0.0100    0.0100    0.0100    0.0100    0.0100
0.0100    0.0100    0.0100    0.0100    0.0100    0.0100    0.0100    0.0100
0.0100    0.0100    0.0100    0.0100    0.0100    0.0100    0.0100    0.0100
0.0100    0.0100    0.0100    0.0100    0.0100    0.0100    0.0100    0.0100
0.0100    0.0100    0.0100    0.0100    0.0100    0.0100    0.0100    0.0100
0.0100    0.0100    0.0100    0.0100    0.0100    0.0100    0.0100    0.0100
0.0100    0.0100    0.0100    0.0100    0.0100    0.0100    0.0100    0.0100
0.0100    0.0100    0.0100    0.0100    0.0100    0.0100    0.0100    0.0100
0.0100    0.0100    0.0100    0.0100    0.0100    0.0100    0.0100    0.0100
0.0100    0.0100    0.0100    0.0100    0.0100    0.0100    0.0100    0.0100
0.0100    0.0100    0.0100    0.0100    0.0100    0.0100    0.0100    0.0100
0.0100    0.0100    0.0100    0.0100    0.0100    0.0100    0.0100    0.0100
0.0100    0.0100    0.0100    0.0100    0.0100    0.0100    0.0100    0.0100
0.0100    0.0100    0.0100    0.0100    0.0100    0.0100    0.0100    0.0100
0.0100    0.0100    0.0100    0.0100    0.0100    0.0100    0.0100    0.0100
0.0100    0.0100    0.0100    0.0100    0.0100    0.0100    0.0100    0.0100
0.0100    0.0100    0.0100    0.0100    0.0100    0.0100    0.0100    0.0100
0.0100    0.0100    0.0100    0.0100    0.0100    0.0100    0.0100    0.0100
0.0100    0.0100    0.0100    0.0100    0.0100    0.0100    0.0100    0.0100
0.0100    0.0100    0.0100    0.0100    0.0100    0.0100    0.0100    0.0100
0.0100    0.0100    0.0100    0.0100    0.0100    0.0100    0.0100    0.0100
0.0100    0.0100    0.0100    0.0100    0.0100    0.0100    0.0100    0.0100
0.0100    0.0100    0.0100    0.0100    0.0100    0.0100    0.0100    0.0100
0.0100    0.0100    0.0100    0.0100    0.0100    0.0100    0.0100    0.0100
0.0100    0.0100    0.0100    0.0100    0.0100    0.0100    0.0100    0.0100
0.0100    0.0100    0.0100    0.0100    0.0100    0.0100    0.0100    0.0100
0.0100    0.0100    0.0100    0.0100    0.0100    0.0100    0.0100    0.0100
0.0100    0.0100    0.0100    0.0100    0.0100    0.0100    0.0100    0.0100
0.0100    0.0100    0.0100    0.0100    0.0100    0.0100    0.0100    0.0100
0.0100    0.0100    0.0100    0.0100    0.0100    0.0100    0.0100    0.0100
0.0100    0.0100    0.0100    0.0100    0.0100    0.0100    0.0100    0.0100
0.0100    0.0100    0.0100    0.0100    0.0100    0.0100    0.0100    0.0100
0.0100    0.0100    0.0100    0.0100    0.0100    0.0100    0.0100    0.0100
0.0100    0.0100    0.0100    0.0100    0.0100    0.0100    0.0100    0.0100
0.0100    0.0100    0.0100    0.0100    0.0100    0.0100    0.0100    0.0100
0.0100    0.0100    0.0100    0.0100    0.0100    0.0100    0.0100    0.0100
0.0100    0.0100    0.0100    0.0100    0.0100    0.0100    0.0100    0.0100
0.0100    0.0100    0.0100    0.0100    0.0100    0.0100    0.0100    0.0100
0.0100    0.0100    0.0100    0.0100    0.0100    0.0100    0.0100    0.0100
0.0100    0.0100    0.0100    0.0100    0.0100    0.0100    0.0100    0.0100
0.0100    0.0100    0.0100    0.0100    0.0100    0.0100    0.0100    0.0100
0.0100    0.0100    0.0100    0.0100    0.0100    0.0100    0.0100    0.0100
0.0100    0.0100    0.0100    0.0100    0.0100    0.0100    0.0100    0.0100
0.0100    0.0100    0.0100    0.0100    0.0100    0.0100    0.0100    0.0100
0.0100    0.0100    0.0100    0.0100    0.0100    0.0100    0.0100    0.0100
0.0100    0.0100    0.0100    0.0100    0.0100    0.0100    0.0100    0.0100
0.0100    0.0100    0.0100    0.0100    0.0100    0.0100    0.0100    0.0100
0.0100    0.0100    0.0100    0.0100    0.0100    0.0100    0.0100    0.0100
0.0100    0.0100    0.0100    0.0100    0.0100    0.0100    0.0100    0.0100
0.0100    0.0100    0.0100    0.0100    0.0100    0.0100    0.0100    0.0100
0.0100    0.0100    0.0100    0.0100    0.0100    0.0100    0.0100    0.0100
0.0100    0.0100    0.0100    0.0100    0.0100    0.0100    0.0100    0.0100
0.0100    0.0100    0.0100    0.0100    0.0100    0.0100    0.0100    0.0100
0.0100    0.0100    0.0100    0.0100    0.0100    0.0100    0.0100    0.0100
0.0100    0.0100    0.0100    0.0100    0.0100    0.0100    0.0100    0.0100
0.0100    0.0100    0.0100    0.0100    0.0100    0.0100    0.0100    0.0100
0.0100    0.0100    0.0100    0.0100    0.0100    0.0100    0.0100    0.0100
0.0100    0.0100    0.0100    0.0100    0.0100    0.0100    0.0100    0.0100
0.0100    0.0100    0.0100    0.0100    0.0100    0.0100    0.0100    0.0100
0.0100    0.0100    0.0100    0.0100    0.0100    0.0100    0.0100    0.0100
0.0100    0.0100    0.0100    0.0100    0.0100    0.0100    0.0100    0.0100
0.0100    0.0100    0.0100    0.0100    0.0100    0.0100    0.0100    0.0100
0.0100    0.0100    0.0100    0.0100    0.0100    0.0100    0.0100    0.0100
0.0100    0.0100    0.0100    0.0100    0.0100    0.0100    0.0100    0.0100
0.0100    0.0100    0.0100    0.0100    0.0100    0.0100    0.0100    0.0100
0.0100    0.0100    0.0100    0.0100    0.0100    0.0100    0.0100    0.0100
0.0100    0.0100    0.0100    0.0100    0.0100    0.0100    0.0100    0.0100
0.0100    0.0100    0.0100    0.0100    0.0100    0.0100    0.0100    0.0100
0.0100    0.0100    0.0100    0.0100    0.0100    0.0100    0.0100    0.0100
0.0100    0.0100    0.0100    0.0100    0.0100    0.0100    0.0100    0.0100
0.0100    0.0100    0.0100    0.0100    0.0100    0.0100    0.0100    0.0100
0.0100    0.0100    0.0100    0.0100    0.0100    0.0100    0.0100    0.0100
0.0100    0.0100    0.0100    0.0100    0.0100    0.0100    0.0100    0.0100
0.0100    0.0100    0.0100    0.0100    0.0100    0.0100    0.0100    0.0100
0.0100    0.0100    0.0100    0.0100    0.0100    0.0100
</PP_RAB>
</PP_MESH>
<PP_LOCAL type="real"  size=" 758" columns="4">
-2.7561832586E+01   -2.7604196938E+01   -2.7716051448E+01   -2.7853410327E+01
-2.7975532037E+01   -2.8059024897E+01   -2.8097772464E+01   -2.8096010262E+01
-2.8061885419E+01   -2.8003713656E+01   -2.7928438556E+01   -2.7841309386E+01
-2.7746077118E+01   -2.7645338443E+01   -2.7540867072E+01   -2.7433878583E+01
-2.7325222448E+01   -2.7215512454E+01   -2.7105210801E+01   -2.6994679863E+01
-2.6884212601E+01   -2.6774049538E+01   -2.6664387636E+01   -2.6555384457E+01
-2.6447159629E+01   -2.6339794752E+01   -2.6233332335E+01   -2.6127774080E+01
-2.6023078739E+01   -2.5919159779E+01   -2.5815883190E+01   -2.5713065888E+01
-2.5610475257E+01   -2.5507830474E+01   -2.5404806204E+01   -2.5301039172E+01
-2.5196137861E+01   -2.5089695262E+01   -2.4981304191E+01   -2.4870574250E+01
-2.4757149169E+01   -2.4640723052E+01   -2.4521054019E+01   -2.4397973996E+01
-2.4271393769E+01   -2.4141303007E+01   -2.4007765521E+01   -2.3870910519E+01
-2.3730920999E+01   -2.3588020573E+01   -2.3442459969E+01   -2.3294504313E+01
-2.3144421978E+01   -2.2992475486E+01   -2.2838914663E+01   -2.2683971973E+01
-2.2527859828E+01   -2.2370769517E+01   -2.2212871419E+01   -2.2054316114E+01
-2.1895236083E+01   -2.1735747726E+01   -2.1575953500E+01   -2.1415944011E+01
-2.1255799975E+01   -2.1095593968E+01   -2.0935391964E+01   -2.0775254621E+01
-2.0615238351E+01   -2.0455396177E+01   -2.0295778410E+01   -2.0136433155E+01
-1.9977406700E+01   -1.9818743778E+01   -1.9660487757E+01   -1.9502680751E+01
-1.9345363686E+01   -1.9188576326E+01   -1.9032357278E+01   -1.8876743978E+01
-1.8721772674E+01   -1.8567478404E+01   -1.8413894986E+01   -1.8261055005E+01
-1.8108989816E+01   -1.7957729560E+01   -1.7807303188E+01   -1.7657738501E+01
-1.7509062193E+01   -1.7361299917E+01   -1.7214476350E+01   -1.7068615265E+01
-1.6923739612E+01   -1.6779871601E+01   -1.6637032778E+01   -1.6495244105E+01
-1.6354526033E+01   -1.6214898566E+01   -1.6076381322E+01   -1.5938993570E+01
-1.5802754270E+01   -1.5667682090E+01   -1.5533795410E+01   -1.5401112314E+01
-1.5269650571E+01   -1.5139427593E+01   -1.5010460389E+01   -1.4882765509E+01
-1.4756358968E+01   -1.4631256177E+01   -1.4507471856E+01   -1.4385019950E+01
-1.4263913542E+01   -1.4144164766E+01   -1.4025784724E+01   -1.3908783408E+01
-1.3793169622E+01   -1.3678950921E+01   -1.3566133546E+01   -1.3454722380E+01
-1.3344720900E+01   -1.3236131146E+01   -1.3128953690E+01   -1.3023187616E+01
-1.2918830503E+01   -1.2815878403E+01   -1.2714325822E+01   -1.2614165736E+01
-1.2515389475E+01   -1.2417986724E+01   -1.2321945517E+01   -1.2227253236E+01
-1.2133897492E+01   -1.2041868547E+01   -1.1951155361E+01   -1.1861741843E+01
-1.1773613248E+01   -1.1686756576E+01   -1.1601158510E+01   -1.1516805841E+01
-1.1433685208E+01   -1.1351782845E+01   -1.1271084366E+01   -1.1191574556E+01
-1.1113237179E+01   -1.1036054836E+01   -1.0960008649E+01   -1.0885078384E+01
-1.0811242602E+01   -1.0738478270E+01   -1.0666760700E+01   -1.0596058719E+01
-1.0526334503E+01   -1.0457543308E+01   -1.0389641063E+01   -1.0322607737E+01
-1.0256435962E+01   -1.0191108575E+01   -1.0126607519E+01   -1.0062917714E+01
-1.0000024090E+01   -9.9379117680E+00   -9.8765662690E+00   -9.8159734831E+00
-9.7561196414E+00   -9.6969913081E+00   -9.6385753713E+00   -9.5808590334E+00
-9.5238298012E+00   -9.4674754774E+00   -9.4117841516E+00   -9.3567441922E+00
-9.3023442379E+00   -9.2485731901E+00   -9.1954202056E+00   -9.1428746886E+00
-9.0909262847E+00   -9.0395648729E+00   -8.9887805601E+00   -8.9385636741E+00
-8.8889047576E+00   -8.8397945625E+00   -8.7912240437E+00   -8.7431843539E+00
-8.6956668383E+00   -8.6486630291E+00   -8.6021646405E+00   -8.5561635642E+00
-8.5106518642E+00   -8.4656217725E+00   -8.4210656848E+00   -8.3769761559E+00
-8.3333458957E+00   -8.2901677653E+00   -8.2474347729E+00   -8.2051400702E+00
-8.1632769487E+00   -8.1218388358E+00   -8.0808192922E+00   -8.0402120077E+00
-8.0000107983E+00   -7.9602096031E+00   -7.9208024813E+00   -7.8817836090E+00
-7.8431472770E+00   -7.8048878870E+00   -7.7669999495E+00   -7.7294780808E+00
-7.6923170011E+00   -7.6555115316E+00   -7.6190565925E+00   -7.5829471997E+00
-7.5471784634E+00   -7.5117455855E+00   -7.4766438578E+00   -7.4418686595E+00
-7.4074154556E+00   -7.3732797944E+00   -7.3394573060E+00   -7.3059437005E+00
-7.2727347657E+00   -7.2398263660E+00   -7.2072144398E+00   -7.1748949990E+00
-7.1428641261E+00   -7.1111179736E+00   -7.0796527620E+00   -7.0484647785E+00
-7.0175503753E+00   -6.9869059683E+00   -6.9565280360E+00   -6.9264131174E+00
-6.8965578117E+00   -6.8669587761E+00   -6.8376127251E+00   -6.8085164292E+00
-6.7796667134E+00   -6.7510604564E+00   -6.7226945896E+00   -6.6945660953E+00
-6.6666720065E+00   -6.6390094052E+00   -6.6115754217E+00   -6.5843672336E+00
-6.5573820647E+00   -6.5306171841E+00   -6.5040699054E+00   -6.4777375857E+00
-6.4516176245E+00   -6.4257074635E+00   -6.4000045849E+00   -6.3745065113E+00
-6.3492108045E+00   -6.3241150649E+00   -6.2992169306E+00   -6.2745140769E+00
-6.2500042154E+00   -6.2256850931E+00   -6.2015544923E+00   -6.1776102291E+00
-6.1538501536E+00   -6.1302721487E+00   -6.1068741295E+00   -6.0836540430E+00
-6.0606098672E+00   -6.0377396106E+00   -6.0150413118E+00   -5.9925130386E+00
-5.9701528878E+00   -5.9479589842E+00   -5.9259294809E+00   -5.9040625577E+00
-5.8823564216E+00   -5.8608093056E+00   -5.8394194686E+00   -5.8181851949E+00
-5.7971047934E+00   -5.7761765978E+00   -5.7553989655E+00   -5.7347702775E+00
-5.7142889379E+00   -5.6939533737E+00   -5.6737620341E+00   -5.6537133900E+00
-5.6338059343E+00   -5.6140381806E+00   -5.5944086635E+00   -5.5749159381E+00
-5.5555585794E+00   -5.5363351823E+00   -5.5172443608E+00   -5.4982847483E+00
-5.4794549967E+00   -5.4607537763E+00   -5.4421797755E+00   -5.4237317007E+00
-5.4054082754E+00   -5.3872082407E+00   -5.3691303543E+00   -5.3511733907E+00
-5.3333361405E+00   -5.3156174107E+00   -5.2980160238E+00   -5.2805308181E+00
-5.2631606469E+00   -5.2459043789E+00   -5.2287608973E+00   -5.2117290998E+00
-5.1948078988E+00   -5.1779962204E+00   -5.1612930048E+00   -5.1446972056E+00
-5.1282077899E+00   -5.1118237382E+00   -5.0955440438E+00   -5.0793677127E+00
-5.0632937637E+00   -5.0473212278E+00   -5.0314491483E+00   -5.0156765805E+00
-5.0000025914E+00   -4.9844262597E+00   -4.9689466756E+00   -4.9535629404E+00
-4.9382741667E+00   -4.9230794779E+00   -4.9079780082E+00   -4.8929689024E+00
-4.8780513155E+00   -4.8632244132E+00   -4.8484873710E+00   -4.8338393745E+00
-4.8192796190E+00   -4.8048073095E+00   -4.7904216607E+00   -4.7761218964E+00
-4.7619072498E+00   -4.7477769631E+00   -4.7337302877E+00   -4.7197664835E+00
-4.7058848194E+00   -4.6920845727E+00   -4.6783650292E+00   -4.6647254831E+00
-4.6511652367E+00   -4.6376836004E+00   -4.6242798926E+00   -4.6109534397E+00
-4.5977035755E+00   -4.5845296418E+00   -4.5714309878E+00   -4.5584069698E+00
-4.5454569520E+00   -4.5325803054E+00   -4.5197764081E+00   -4.5070446455E+00
-4.4943844096E+00   -4.4817950993E+00   -4.4692761203E+00   -4.4568268849E+00
-4.4444468119E+00   -4.4321353265E+00   -4.4198918604E+00   -4.4077158512E+00
-4.3956067432E+00   -4.3835639864E+00   -4.3715870370E+00   -4.3596753570E+00
-4.3478284143E+00   -4.3360456826E+00   -4.3243266413E+00   -4.3126707754E+00
-4.3010775754E+00   -4.2895465372E+00   -4.2780771623E+00   -4.2666689573E+00
-4.2553214342E+00   -4.2440341100E+00   -4.2328065071E+00   -4.2216381527E+00
-4.2105285790E+00   -4.1994773233E+00   -4.1884839274E+00   -4.1775479383E+00
-4.1666689073E+00   -4.1558463907E+00   -4.1450799493E+00   -4.1343691483E+00
-4.1237135576E+00   -4.1131127513E+00   -4.1025663080E+00   -4.0920738107E+00
-4.0816348465E+00   -4.0712490067E+00   -4.0609158868E+00   -4.0506350864E+00
-4.0404062092E+00   -4.0302288628E+00   -4.0201026588E+00   -4.0100272126E+00
-4.0000021436E+00   -3.9900270749E+00   -3.9801016333E+00   -3.9702254494E+00
-3.9603981574E+00   -3.9506193952E+00   -3.9408888042E+00   -3.9312060293E+00
-3.9215707189E+00   -3.9119825249E+00   -3.9024411025E+00   -3.8929461103E+00
-3.8834972102E+00   -3.8740940675E+00   -3.8647363505E+00   -3.8554237309E+00
-3.8461558834E+00   -3.8369324860E+00   -3.8277532196E+00   -3.8186177683E+00
-3.8095258190E+00   -3.8004770619E+00   -3.7914711898E+00   -3.7825078986E+00
-3.7735868870E+00   -3.7647078566E+00   -3.7558705118E+00   -3.7470745596E+00
-3.7383197099E+00   -3.7296056754E+00   -3.7209321711E+00   -3.7122989152E+00
-3.7037056279E+00   -3.6951520324E+00   -3.6866378544E+00   -3.6781628220E+00
-3.6697266659E+00   -3.6613291191E+00   -3.6529699172E+00   -3.6446487982E+00
-3.6363655025E+00   -3.6281197726E+00   -3.6199113538E+00   -3.6117399932E+00
-3.6036054405E+00   -3.5955074475E+00   -3.5874457684E+00   -3.5794201594E+00
-3.5714303790E+00   -3.5634761877E+00   -3.5555573484E+00   -3.5476736258E+00
-3.5398247870E+00   -3.5320106008E+00   -3.5242308383E+00   -3.5164852726E+00
-3.5087736786E+00   -3.5010958333E+00   -3.4934515158E+00   -3.4858405067E+00
-3.4782625890E+00   -3.4707175473E+00   -3.4632051680E+00   -3.4557252396E+00
-3.4482775523E+00   -3.4408618980E+00   -3.4334780705E+00   -3.4261258653E+00
-3.4188050799E+00   -3.4115155131E+00   -3.4042569657E+00   -3.3970292402E+00
-3.3898321405E+00   -3.3826654726E+00   -3.3755290438E+00   -3.3684226631E+00
-3.3613461411E+00   -3.3542992900E+00   -3.3472819237E+00   -3.3402938574E+00
-3.3333349080E+00   -3.3264048940E+00   -3.3195036351E+00   -3.3126309530E+00
-3.3057866703E+00   -3.2989706114E+00   -3.2921826022E+00   -3.2854224698E+00
-3.2786900428E+00   -3.2719851513E+00   -3.2653076267E+00   -3.2586573018E+00
-3.2520340107E+00   -3.2454375890E+00   -3.2388678734E+00   -3.2323247021E+00
-3.2258079145E+00   -3.2193173514E+00   -3.2128528549E+00   -3.2064142681E+00
-3.2000014357E+00   -3.1936142034E+00   -3.1872524183E+00   -3.1809159285E+00
-3.1746045835E+00   -3.1683182339E+00   -3.1620567315E+00   -3.1558199294E+00
-3.1496076816E+00   -3.1434198434E+00   -3.1372562712E+00   -3.1311168226E+00
-3.1250013563E+00   -3.1189097319E+00   -3.1128418103E+00   -3.1067974534E+00
-3.1007765243E+00   -3.0947788870E+00   -3.0888044066E+00   -3.0828529493E+00
-3.0769243821E+00   -3.0710185734E+00   -3.0651353923E+00   -3.0592747091E+00
-3.0534363948E+00   -3.0476203218E+00   -3.0418263631E+00   -3.0360543928E+00
-3.0303042861E+00   -3.0245759190E+00   -3.0188691683E+00   -3.0131839119E+00
-3.0075200288E+00   -3.0018773984E+00   -2.9962559015E+00   -2.9906554196E+00
-2.9850758350E+00   -2.9795170310E+00   -2.9739788917E+00   -2.9684613020E+00
-2.9629641479E+00   -2.9574873160E+00   -2.9520306938E+00   -2.9465941697E+00
-2.9411776328E+00   -2.9357809731E+00   -2.9304040814E+00   -2.9250468493E+00
-2.9197091692E+00   -2.9143909341E+00   -2.9090920381E+00   -2.9038123758E+00
-2.8985518428E+00   -2.8933103352E+00   -2.8880877500E+00   -2.8828839850E+00
-2.8776989385E+00   -2.8725325099E+00   -2.8673845989E+00   -2.8622551062E+00
-2.8571439331E+00   -2.8520509817E+00   -2.8469761547E+00   -2.8419193555E+00
-2.8368804882E+00   -2.8318594576E+00   -2.8268561692E+00   -2.8218705291E+00
-2.8169024441E+00   -2.8119518216E+00   -2.8070185697E+00   -2.8021025972E+00
-2.7972038134E+00   -2.7923221284E+00   -2.7874574527E+00   -2.7826096976E+00
-2.7777787751E+00   -2.7729645975E+00   -2.7681670780E+00   -2.7633861302E+00
-2.7586216685E+00   -2.7538736077E+00   -2.7491418632E+00   -2.7444263512E+00
-2.7397269883E+00   -2.7350436915E+00   -2.7303763787E+00   -2.7257249681E+00
-2.7210893788E+00   -2.7164695299E+00   -2.7118653416E+00   -2.7072767343E+00
-2.7027036291E+00   -2.6981459475E+00   -2.6936036117E+00   -2.6890765443E+00
-2.6845646683E+00   -2.6800679076E+00   -2.6755861862E+00   -2.6711194288E+00
-2.6666675606E+00   -2.6622305074E+00   -2.6578081951E+00   -2.6534005507E+00
-2.6490075010E+00   -2.6446289739E+00   -2.6402648974E+00   -2.6359152000E+00
-2.6315798109E+00   -2.6272586596E+00   -2.6229516759E+00   -2.6186587905E+00
-2.6143799341E+00   -2.6101150381E+00   -2.6058640343E+00   -2.6016268549E+00
-2.5974034326E+00   -2.5931937005E+00   -2.5889975922E+00   -2.5848150416E+00
-2.5806459831E+00   -2.5764903515E+00   -2.5723480822E+00   -2.5682191106E+00
-2.5641033730E+00   -2.5600008058E+00   -2.5559113458E+00   -2.5518349304E+00
-2.5477714972E+00   -2.5437209843E+00   -2.5396833302E+00   -2.5356584738E+00
-2.5316463543E+00   -2.5276469114E+00   -2.5236600850E+00   -2.5196858156E+00
-2.5157240439E+00   -2.5117747110E+00   -2.5078377586E+00   -2.5039131284E+00
-2.5000007627E+00   -2.4961006041E+00   -2.4922125955E+00   -2.4883366804E+00
-2.4844728022E+00   -2.4806209051E+00   -2.4767809334E+00   -2.4729528318E+00
-2.4691365454E+00   -2.4653320195E+00   -2.4615391998E+00   -2.4577580325E+00
-2.4539884639E+00   -2.4502304407E+00   -2.4464839100E+00   -2.4427488190E+00
-2.4390251156E+00   -2.4353127477E+00   -2.4316116636E+00   -2.4279218119E+00
-2.4242431417E+00   -2.4205756021E+00   -2.4169191427E+00   -2.4132737134E+00
-2.4096392644E+00   -2.4060157460E+00   -2.4024031091E+00   -2.3988013048E+00
-2.3952102843E+00   -2.3916299993E+00   -2.3880604018E+00   -2.3845014440E+00
-2.3809530783E+00   -2.3774152576E+00   -2.3738879349E+00   -2.3703710636E+00
-2.3668645972E+00   -2.3633684898E+00   -2.3598826953E+00   -2.3564071684E+00