3
# CELL(abcABC):    9.81490     9.81490     9.81490    90.00000    90.00000    90.00000  Traj: positions{angstrom} Step:        3600  Bead:       0 
O   3.0000  3.11915 3.35845
H   3.2774  4.01205 3.61285
H   3.6068  2.88085 2.64155
3
# CELL(abcABC):    9.81490     9.81490     9.81490    90.00000    90.00000    90.00000  Traj: positions{angstrom} Step:        3600  Bead:       0 
O   3.0000  3.11915 3.35845
H   3.2774  4.01205 3.61285
H   3.6068  2.88085 2.64155