96
# CELL(abcABC):    9.81490     9.81490     9.81490    90.00000    90.00000    90.00000  Traj: positions{angstrom} Step:        2800  Bead:       0 
       O  4.24261e-01  7.75602e+00 -5.85818e+00
       O  3.36222e+00 -5.92424e+00 -4.39615e+00
       O  2.39754e+00  4.76280e+00 -9.81553e-01
       O -1.11305e+00  4.37544e+00 -3.26163e+00
       O -3.06214e+00 -4.75274e+00  5.16035e+00
       O  9.80112e+00 -7.38890e-01  7.90772e+00
       O  5.80957e+00  1.71818e+00 -2.31515e+00
       O  6.18736e+00  4.03824e-03 -4.54474e+00
       O  1.21258e-02  4.39090e+00  1.15619e+01
       O -7.44742e+00  4.27082e-01 -2.52508e+00
       O -1.42368e-02  6.27553e+00 -1.43376e+00
       O  3.42867e+00 -7.87671e-01  5.16373e+00
       O -1.55331e+00  1.40778e+00 -1.50984e+00
       O -3.03826e+00 -3.45969e+00 -1.16183e+01
       O -4.76885e+00  4.18560e+00 -8.56572e+00
       O -7.84227e+00  8.64991e-01  5.00334e-01
       O -9.32607e+00  2.84811e+00  9.44122e+00
       O  7.61688e+00 -4.02729e+00  9.29922e-01
       O -2.52237e+00  1.14985e+01  3.09549e+00
       O -1.20781e+01  7.21406e-02  9.61209e-01
       O -9.36243e+00 -7.78829e+00 -6.54140e+00
       O  3.45470e+00  4.97056e-01  1.25821e+01
       O  2.31048e+00 -3.45198e+00  5.42156e+00
       O  2.52873e+00 -4.21055e+00  1.51494e+00
       O  7.91927e+00 -1.79515e+00 -4.17725e+00
       O -8.70202e+00 -7.34782e+00 -3.97690e+00
       O -5.90537e+00 -1.82171e+00  1.84395e+00
       O  4.86408e+00 -5.53141e+00 -2.10117e+00
       O  6.45678e+00  7.29827e+00  2.97296e+00
       O  6.43255e-02 -3.98631e-01  1.91179e+00
       O -4.10091e+00 -8.83654e-01 -8.24932e-01
       O  4.86138e+00 -7.12331e+00 -6.34176e+00
       H -4.07290e-01  7.80239e+00 -5.34319e+00
       H  1.06596e+00  7.20659e+00 -5.37170e+00
       H  3.88254e+00 -5.82127e+00 -3.59273e+00
       H  3.99072e+00 -6.32116e+00 -5.02872e+00
       H  2.43992e+00  5.06484e+00 -2.32603e-02
       H  1.90241e+00  3.90039e+00 -9.31668e-01
       H -1.73204e+00 -5.08157e+00 -3.96316e+00
       H -1.66577e+00  3.90927e+00 -2.60711e+00
       H -3.76644e+00 -5.33160e+00  4.83474e+00
       H -3.04305e+00 -4.07358e+00  4.47757e+00
       H  1.06924e+01 -5.01895e-01  7.58436e+00
       H  9.93965e+00 -1.40080e+00  8.65195e+00
       H  5.42776e+00  2.59286e+00 -2.09975e+00
       H  5.33758e+00  1.06897e+00 -1.77425e+00
       H  6.23732e+00  8.09959e-01 -3.96679e+00
       H  5.26914e+00 -3.64145e-01 -4.55670e+00
       H  1.93929e-01  3.85434e+00  1.07073e+01
       H  1.86207e-01  3.72930e+00  1.22426e+01
       H -7.93915e+00  1.19632e+00 -3.04113e+00
       H -6.96553e+00 -1.12055e-01 -3.20589e+00
       H -5.98929e-01  5.69484e+00 -1.96291e+00
       H  7.87269e-01  5.78371e+00 -1.27562e+00
       H  3.27595e+00 -1.72200e+00  4.99490e+00
       H  3.09898e+00 -2.40310e-01  4.41756e+00
       H -1.10425e+00  5.38605e-01 -1.71495e+00
       H -2.48245e+00  1.47014e+00 -1.89879e+00
       H -3.37838e+00 -2.58144e+00 -1.13809e+01
       H -2.79578e+00 -3.29707e+00 -2.71991e+00
       H -5.58937e+00  4.72883e+00 -8.47081e+00
       H -3.94584e+00  4.71596e+00 -8.62881e+00
       H -8.43335e+00  2.03951e-01  9.61104e-01
       H -7.52982e+00  3.56809e-01 -1.01144e+01
       H -8.84505e+00  2.00275e+00  9.60409e+00
       H -1.01539e+01  2.57099e+00  8.96981e+00
       H  7.77275e+00 -3.78072e+00 -4.13611e-02
       H  8.43255e+00 -4.45143e+00  1.24363e+00
       H -1.56482e+00  1.18313e+01  3.27698e+00
       H -2.79246e+00  1.07616e+01 -6.14133e+00
       H -1.98537e+00  6.35561e-01  1.82500e-01
       H -1.20937e+01  8.52288e-01  1.58887e+00
       H -9.09080e+00 -7.66395e+00 -5.63612e+00
       H -9.52518e+00 -8.72494e+00 -6.75607e+00
       H  2.91471e+00  8.31719e-01  1.18006e+01
       H  4.17993e+00  1.11987e+00  1.27022e+01
       H  1.95077e+00 -3.52736e+00  6.33809e+00
       H  2.54619e+00 -4.39529e+00  5.20821e+00
       H  1.63154e+00 -4.55165e+00  1.79188e+00
       H  2.59136e+00 -1.31398e+01  1.91169e+00
       H  7.17917e+00 -1.12759e+00 -4.23360e+00
       H  8.42758e+00 -1.46826e+00 -3.37964e+00
       H -7.89873e+00 -6.84947e+00 -4.17067e+00
       H -9.43818e+00  3.14150e+00 -3.83418e+00
       H  3.74393e+00 -8.61279e-01  2.11212e+00
       H -5.06365e+00 -2.12801e+00  2.25884e+00
       H  5.48819e+00 -4.76701e+00 -1.90406e+00
       H  4.06521e+00 -5.45007e+00 -1.53831e+00
       H  6.81557e+00  8.14878e+00  3.29145e+00
       H  6.93232e+00  1.67915e+01  2.12665e+00
       H -8.11532e-01 -6.03730e-01  1.56012e+00
       H  2.43560e-01 -1.12632e+00  2.62939e+00
       H -3.72747e+00 -7.76779e-01  1.88228e-02
       H -4.94759e+00 -1.25006e+00 -1.02750e+01
       H  4.91771e+00 -6.55595e+00  2.59935e+00
       H  5.83089e+00 -7.29293e+00  3.37822e+00
96
# CELL(abcABC):    9.81490     9.81490     9.81490    90.00000    90.00000    90.00000  Traj: positions{angstrom} Step:        3600  Bead:       0 
       O -2.19769e-01  7.02564e+00 -6.18711e+00
       O  3.20230e+00 -5.61796e+00 -4.55131e+00
       O  2.22227e+00  4.99939e+00 -8.11476e-01
       O -1.13157e+00  4.07816e+00 -2.91361e+00
       O -3.14894e+00 -4.68115e+00  4.91823e+00
       O  9.46417e+00 -6.78187e-01  8.06375e+00
       O  5.39297e+00  1.25264e+00 -1.99567e+00
       O  5.91312e+00 -2.98359e-01 -4.19324e+00
       O  2.12167e-01  4.59284e+00  1.18946e+01
       O -7.69561e+00  5.25763e-01 -2.59652e+00
       O  4.25927e-01  6.16666e+00 -2.42656e+00
       O  3.35869e+00 -7.46819e-01  5.10844e+00
       O -1.81906e+00  1.70302e+00 -1.24534e+00
       O -3.38201e+00 -3.88871e+00 -1.17336e+01
       O -4.40640e+00  4.66217e+00 -8.49991e+00
       O -7.18921e+00  7.55424e-01  6.38068e-03
       O -9.23370e+00  2.79015e+00  9.75535e+00
       O  8.02334e+00 -3.47531e+00  1.06225e+00
       O -2.74928e+00  1.10714e+01  3.50714e+00
       O -1.19473e+01  1.24028e-01  1.00269e+00
       O -9.81201e+00 -8.14802e+00 -6.55652e+00
       O  3.51820e+00  9.92295e-01  1.23909e+01
       O  2.07062e+00 -3.17169e+00  5.11139e+00
       O  2.71067e+00 -4.11725e+00  1.76815e+00
       O  8.17321e+00 -1.34551e+00 -4.27021e+00
       O -8.84845e+00 -7.09831e+00 -4.29312e+00
       O -5.53730e+00 -1.76109e+00  1.62081e+00
       O  4.58354e+00 -5.88116e+00 -1.91553e+00
       O  6.59268e+00  7.22393e+00  3.13855e+00
       O  6.89838e-01 -8.61612e-01  1.60873e+00
       O -4.03393e+00 -1.27761e+00 -5.73222e-01
       O  5.19374e+00 -6.56815e+00 -6.20824e+00
       H -6.32042e-01  7.33918e+00 -5.33758e+00
       H  5.92345e-01  6.62220e+00 -5.82562e+00
       H  3.77001e+00 -5.35555e+00 -3.82847e+00
       H  3.78457e+00 -5.92324e+00 -5.26208e+00
       H  2.43170e+00  5.41387e+00  8.09838e-02
       H  1.61946e+00  4.25457e+00 -6.44284e-01
       H -1.72804e+00 -5.44299e+00 -3.62488e+00
       H -1.64588e+00  3.47154e+00 -2.35228e+00
       H -3.65647e+00 -5.35582e+00  4.45075e+00
       H -3.09331e+00 -3.88852e+00  4.33822e+00
       H  1.02790e+01 -3.72073e-01  7.68773e+00
       H  9.49873e+00 -1.64213e+00  8.13532e+00
       H  4.95161e+00  2.13198e+00 -1.80572e+00
       H  5.20105e+00  5.23502e-01 -1.33841e+00
       H  5.72478e+00  1.57282e-01 -3.33578e+00
       H  5.03704e+00 -6.64954e-01 -4.43251e+00
       H  1.91667e-01  3.62147e+00  1.18445e+01
       H -1.42431e-01  4.86276e+00  1.27954e+01
       H -7.81664e+00  1.43879e+00 -2.91439e+00
       H -7.31363e+00  1.02789e-01 -3.41691e+00
       H -1.79025e-01  5.52153e+00 -2.72952e+00
       H  1.15762e+00  5.75843e+00 -1.90825e+00
       H  2.98416e+00 -1.60573e+00  4.82942e+00
       H  3.37396e+00 -2.10772e-01  4.28340e+00
       H -1.20764e+00  1.09753e+00 -1.80700e+00
       H -2.79445e+00  1.45561e+00 -1.42614e+00
       H -3.35853e+00 -2.90183e+00 -1.15595e+01
       H -3.16082e+00 -3.92800e+00 -2.90732e+00
       H -5.26171e+00  5.14506e+00 -8.59722e+00
       H -3.65537e+00  5.28231e+00 -8.67615e+00
       H -7.80784e+00  8.51787e-02  3.53800e-01
       H -7.23054e+00  6.31960e-01 -1.08076e+01
       H -8.51584e+00  2.17031e+00  9.57657e+00
       H -1.00584e+01  2.52737e+00  9.26753e+00
       H  8.22235e+00 -3.58799e+00  1.23589e-01
       H  8.75756e+00 -4.04403e+00  1.52875e+00
       H -1.74688e+00  1.10883e+01  3.54438e+00
       H -3.01359e+00  1.03492e+01 -5.77506e+00
       H -1.74765e+00  8.69505e-01  4.72985e-01
       H -1.21974e+01  4.72440e-01  1.87280e+00
       H -9.43017e+00 -7.75131e+00 -5.74383e+00
       H -9.45075e+00 -9.04418e+00 -6.63582e+00
       H  3.34105e+00  9.70710e-01  1.13937e+01
       H  4.15544e+00  1.75744e+00  1.24870e+01
       H  1.55168e+00 -3.21396e+00  5.99544e+00
       H  2.58467e+00 -4.04004e+00  5.05107e+00
       H  1.76247e+00 -4.41443e+00  1.90868e+00
       H  2.65520e+00 -1.29591e+01  1.65317e+00
       H  7.20754e+00 -1.20013e+00 -4.10833e+00
       H  8.62463e+00 -1.17776e+00 -3.42935e+00
       H -8.04311e+00 -6.54102e+00 -4.41062e+00
       H -9.52525e+00  3.16986e+00 -3.71390e+00
       H  4.24607e+00 -8.40229e-01  1.85765e+00
       H -4.88837e+00 -2.15616e+00  2.26573e+00
       H  5.11805e+00 -5.05091e+00 -1.87456e+00
       H  3.78364e+00 -5.59891e+00 -1.47953e+00
       H  7.23747e+00  7.77698e+00  3.54924e+00
       H  7.13606e+00  1.66929e+01  2.39349e+00
       H -2.37346e-01 -7.83510e-01  1.28170e+00
       H  5.31224e-01 -1.56487e+00  2.25578e+00
       H -3.30779e+00 -9.26531e-01 -4.49403e-02
       H -4.74655e+00 -1.44988e+00 -9.76912e+00
       H  5.28849e+00 -6.04017e+00  2.72296e+00
       H  5.97412e+00 -7.22580e+00  3.55295e+00
96
# CELL(abcABC):    9.81490     9.81490     9.81490    90.00000    90.00000    90.00000  Traj: positions{angstrom} Step:         390  Bead:       0 
       O  7.69313e-02  7.03276e+00 -6.20239e+00
       O  3.53562e+00 -5.48314e+00 -4.53622e+00
       O  1.98137e+00  5.00846e+00 -6.29180e-01
       O -9.01199e-01  4.62956e+00 -3.05448e+00
       O -2.84556e+00 -4.20210e+00  5.37610e+00
       O  9.40406e+00 -1.14335e+00  8.96937e+00
       O  5.72652e+00  1.60019e+00 -2.08692e+00
       O  6.10404e+00  1.71697e-02 -4.53230e+00
       O -7.24057e-01  4.34848e+00  1.19254e+01
       O -8.27547e+00  6.16775e-01 -2.64320e+00
       O  6.62956e-01  6.58317e+00 -2.36511e+00
       O  3.48463e+00 -4.38491e-01  4.94460e+00
       O -1.37142e+00  2.05227e+00 -2.10910e+00
       O -3.57340e+00 -3.47049e+00 -1.17188e+01
       O -4.96671e+00  3.58382e+00 -8.50858e+00
       O -7.67768e+00  5.55011e-01  1.13684e-01
       O -9.45319e+00  2.67820e+00  9.82338e+00
       O  6.98044e+00 -4.83689e+00  6.03503e-01
       O -2.63141e+00  1.12451e+01  3.10180e+00
       O -1.15095e+01 -5.79649e-01  1.38724e+00
       O -9.65251e+00 -8.01252e+00 -6.36774e+00
       O  3.90278e+00  8.36676e-01  1.19572e+01
       O  2.37278e+00 -3.03611e+00  5.12655e+00
       O  2.27753e+00 -4.04304e+00  1.94453e+00
       O  8.29933e+00 -1.47978e+00 -4.14770e+00
       O -8.73033e+00 -6.87130e+00 -4.26204e+00
       O -5.79211e+00 -2.12887e+00  1.70872e+00
       O  4.52919e+00 -5.54175e+00 -1.85792e+00
       O  6.40963e+00  6.67580e+00  2.73631e+00
       O  1.06392e+00 -8.92435e-01  1.97955e+00
       O -4.04366e+00 -8.23359e-01 -5.30135e-01
       O  5.91485e+00 -6.11459e+00 -5.98779e+00
       H -4.85174e-01  7.63515e+00 -5.64758e+00
       H  7.81943e-01  6.76264e+00 -5.54747e+00
       H  3.86900e+00 -5.38235e+00 -3.57890e+00
       H  4.31718e+00 -5.99597e+00 -4.87128e+00
       H  2.01612e+00  5.13141e+00  3.70966e-01
       H  1.28332e+00  4.31391e+00 -7.05025e-01
       H -1.61463e+00 -4.99574e+00 -3.66592e+00
       H -1.04890e+00  3.84184e+00 -2.54355e+00
       H -3.35792e+00 -4.85812e+00  4.84005e+00
       H -2.70800e+00 -3.51180e+00  4.68012e+00
       H  9.65553e+00 -4.08499e-01  8.38575e+00
       H  9.71244e+00 -2.03519e+00  8.55189e+00
       H  5.19270e+00  2.43181e+00 -2.06845e+00
       H  5.31374e+00  9.80738e-01 -1.43864e+00
       H  5.94876e+00  6.51824e-01 -3.78656e+00
       H  5.22510e+00 -3.71917e-01 -4.65821e+00
       H -1.72872e-01  3.59514e+00  1.19151e+01
       H -5.94612e-01  5.00582e+00  1.26175e+01
       H -8.30828e+00  1.54787e+00 -3.05810e+00
       H -7.77521e+00  7.24636e-02 -3.31128e+00
       H  1.79268e-02  5.88360e+00 -2.53218e+00
       H  1.34230e+00  6.14209e+00 -1.79186e+00
       H  3.03978e+00 -1.31808e+00  4.90500e+00
       H  3.53245e+00 -1.17296e-01  4.02962e+00
       H -1.08340e+00  1.47407e+00 -2.86110e+00
       H -2.36226e+00  2.00168e+00 -2.00646e+00
       H -3.65709e+00 -2.46842e+00 -1.16049e+01
       H -3.38105e+00 -3.64901e+00 -2.85294e+00
       H -5.78845e+00  3.97618e+00 -8.76779e+00
       H -4.27488e+00  3.85038e+00 -9.07314e+00
       H -8.04721e+00 -1.55302e-01  6.33637e-01
       H -7.83961e+00  3.83168e-01 -1.06631e+01
       H -8.81734e+00  1.90009e+00  9.90668e+00
       H -1.01383e+01  2.33396e+00  9.12653e+00
       H  7.01173e+00 -4.32198e+00 -2.61807e-01
       H  7.92988e+00 -5.05949e+00  8.69827e-01
       H -1.67342e+00  1.13895e+01  3.26297e+00
       H -2.88765e+00  1.05863e+01 -6.05025e+00
       H -1.32159e+00 -7.49263e-01  4.94120e-01
       H -1.18384e+01  3.26267e-01  1.68784e+00
       H -9.21355e+00 -7.69860e+00 -5.53467e+00
       H -9.03656e+00 -8.64602e+00 -6.76054e+00
       H  3.42109e+00  7.29834e-01  1.11221e+01
       H  4.51038e+00  1.59120e+00  1.17345e+01
       H  1.95876e+00 -3.06999e+00  5.97406e+00
       H  2.90161e+00 -3.83858e+00  4.91303e+00
       H  1.34920e+00 -3.70157e+00  2.01866e+00
       H  2.87272e+00 -1.30874e+01  1.93396e+00
       H  7.35275e+00 -1.16166e+00 -4.05450e+00
       H  8.82365e+00 -1.50396e+00 -3.33201e+00
       H -7.79296e+00 -6.52779e+00 -4.32567e+00
       H -9.24220e+00  3.74904e+00 -3.96123e+00
       H  4.04047e+00 -1.20441e+00  2.10568e+00
       H -4.95514e+00 -2.54073e+00  1.99518e+00
       H  4.99963e+00 -4.64895e+00 -1.80991e+00
       H  3.67803e+00 -5.27489e+00 -1.42459e+00
       H  7.18403e+00  7.11431e+00  2.41032e+00
       H  6.47395e+00  1.56919e+01  2.17148e+00
       H  1.20911e-01 -5.79127e-01  1.77027e+00
       H  9.70103e-01 -1.72021e+00  2.49461e+00
       H -3.33777e+00 -8.82407e-01  1.06880e-01
       H -4.70665e+00 -1.26350e+00 -9.80910e+00
       H  5.54005e+00 -5.86753e+00  2.94950e+00
       H  6.48782e+00 -6.91966e+00  3.68150e+00
96
# CELL(abcABC):    9.81490     9.81490     9.81490    90.00000    90.00000    90.00000  Traj: positions{angstrom} Step:        1190  Bead:       0 
       O  3.08564e-01  6.81624e+00 -6.00390e+00
       O  3.19296e+00 -6.37945e+00 -3.83135e+00
       O  1.43909e+00  5.16584e+00 -7.17258e-02
       O -1.20206e+00  4.69783e+00 -3.19880e+00
       O -3.70826e+00 -4.30436e+00  5.34511e+00
       O  1.02485e+01 -8.68312e-01  7.57405e+00
       O  5.87864e+00  1.21837e+00 -2.32904e+00
       O  6.17363e+00 -3.44562e-01 -4.67497e+00
       O -4.55186e-01  4.56767e+00  1.20407e+01
       O -6.80252e+00  5.62880e-01 -2.27608e+00
       O  6.97833e-01  6.41181e+00 -2.48952e+00
       O  3.45994e+00 -1.04106e+00  5.31497e+00
       O -1.51404e+00  2.09541e+00 -2.52932e+00
       O -3.72504e+00 -3.85741e+00 -1.14314e+01
       O -4.56995e+00  4.65240e+00 -8.40061e+00
       O -7.55723e+00  9.86141e-01  5.77531e-01
       O -1.01231e+01  2.74427e+00  9.72127e+00
       O  7.50767e+00 -3.80032e+00  9.64148e-01
       O -3.12810e+00  1.10658e+01  2.82688e+00
       O -1.11818e+01 -2.48254e-01 -1.29658e-01
       O -1.03864e+01 -8.02159e+00 -6.69213e+00
       O  3.39651e+00  9.36621e-01  1.28288e+01
       O  2.34525e+00 -3.69140e+00  5.31456e+00
       O  2.87311e+00 -3.52858e+00  1.83022e+00
       O  8.45111e+00 -1.74542e+00 -4.22958e+00
       O -9.29593e+00 -7.24786e+00 -4.21606e+00
       O -5.34413e+00 -1.41319e+00  1.66208e+00
       O  4.78519e+00 -6.17931e+00 -1.43741e+00
       O  6.72911e+00  7.44663e+00  3.17016e+00
       O  5.27669e-01 -8.18646e-01  1.73579e+00
       O -4.07754e+00 -1.03029e+00 -8.18279e-01
       O  5.36283e+00 -6.58263e+00 -6.20161e+00
       H -3.34579e-01  7.22251e+00 -5.34385e+00
       H  1.17570e+00  6.74207e+00 -5.54273e+00
       H  3.86444e+00 -6.15036e+00 -3.14467e+00
       H  3.76107e+00 -6.48121e+00 -4.60521e+00
       H  1.79222e+00  5.61913e+00  6.99836e-01
       H  7.37180e-01  4.57425e+00  2.51025e-01
       H -1.95762e+00 -4.77482e+00 -3.73058e+00
       H -1.48155e+00  3.84681e+00 -2.87452e+00
       H -3.72331e+00 -5.03634e+00  4.70623e+00
       H -3.50845e+00 -3.55345e+00  4.73074e+00
       H  1.11491e+01 -4.17744e-01  7.58955e+00
       H  1.03401e+01 -1.85065e+00  7.46153e+00
       H  5.39708e+00  2.00110e+00 -2.01760e+00
       H  5.58094e+00  4.83734e-01 -1.77597e+00
       H  5.92274e+00  2.48520e-01 -3.92978e+00
       H  5.28545e+00 -5.35041e-01 -5.07782e+00
       H -4.05323e-01  3.66061e+00  1.23462e+01
       H -1.63651e-01  5.21458e+00  1.28196e+01
       H -7.04494e+00  1.43381e+00 -2.62674e+00
       H -6.47951e+00  1.64653e-02 -3.04829e+00
       H -9.21979e-02  5.87408e+00 -2.61217e+00
       H  1.05275e+00  6.13865e+00 -1.57725e+00
       H  3.41709e+00 -2.02320e+00  5.42203e+00
       H  3.41993e+00 -7.84815e-01  4.36625e+00
       H -1.10195e+00  1.38055e+00 -3.03363e+00
       H -2.40314e+00  1.69090e+00 -2.22746e+00
       H -3.84782e+00 -2.84563e+00 -1.12016e+01
       H -3.49536e+00 -3.80179e+00 -2.57646e+00
       H -5.24947e+00  5.31044e+00 -8.44120e+00
       H -3.69264e+00  5.14004e+00 -8.51779e+00
       H -8.07177e+00  2.12131e-01  9.54461e-01
       H -7.30592e+00  6.99319e-01 -1.01387e+01
       H -9.31741e+00  2.26565e+00  9.92517e+00
       H -1.03232e+01  2.66744e+00  8.75846e+00
       H  7.71788e+00 -3.66134e+00 -6.50732e-03
       H  8.13952e+00 -4.48642e+00  1.30871e+00
       H -2.19883e+00  1.11719e+01  2.64182e+00
       H -3.26144e+00  1.05569e+01 -6.15829e+00
       H -6.78773e-01 -4.51229e-01 -8.74068e-01
       H -1.10844e+01  6.40330e-01  2.13924e-01
       H -1.02361e+01 -7.85627e+00 -5.72489e+00
       H -9.61156e+00 -8.53731e+00 -6.90672e+00
       H  3.16537e+00  1.14274e+00  1.18406e+01
       H  4.02455e+00  1.68752e+00  1.30203e+01
       H  1.79565e+00 -3.51413e+00  6.12267e+00
       H  2.61170e+00 -4.59221e+00  5.49453e+00
       H  2.70188e+00 -3.74680e+00  2.74316e+00
       H  3.37991e+00 -1.24787e+01  1.81546e+00
       H  7.62433e+00 -1.26042e+00 -4.33671e+00
       H  9.11168e+00 -1.20929e+00 -3.68866e+00
       H -8.34647e+00 -6.92419e+00 -4.22556e+00
       H -9.82313e+00  3.22018e+00 -3.76042e+00
       H  4.21545e+00 -5.24848e-01  2.06502e+00
       H -4.45213e+00 -1.58718e+00  2.09782e+00
       H  5.31712e+00 -5.39529e+00 -1.24733e+00
       H  4.41555e+00 -6.31439e+00 -5.74600e-01
       H  7.58029e+00  7.92772e+00  3.37689e+00
       H  6.98686e+00  1.69082e+01  2.31639e+00
       H -5.75854e-02 -1.00563e+00  9.92548e-01
       H  5.23435e-01 -1.59621e+00  2.35542e+00
       H -3.21497e+00 -7.88789e-01 -4.42034e-01
       H -4.63523e+00 -1.25946e+00 -9.86164e+00
       H  5.10653e+00 -5.92678e+00  2.90565e+00
       H  6.01921e+00 -7.17426e+00  3.19969e+00
96
# CELL(abcABC):    9.81490     9.81490     9.81490    90.00000    90.00000    90.00000  Traj: positions{angstrom} Step:        1990  Bead:       0 
       O -3.19318e-02  6.66388e+00 -6.06243e+00
       O  3.72722e+00 -6.83220e+00 -4.32054e+00
       O  1.46528e+00  5.14638e+00  3.00033e-02
       O -7.75609e-01  5.07311e+00 -3.15424e+00
       O -4.85881e+00 -4.14423e+00  4.39818e+00
       O  1.00850e+01 -1.12454e+00  7.68976e+00
       O  6.12585e+00  1.64683e+00 -1.96910e+00
       O  6.22140e+00 -1.94505e-01 -3.96394e+00
       O -6.66637e-01  4.31781e+00  1.15339e+01
       O -7.82791e+00  1.07591e+00 -2.55170e+00
       O  1.46167e+00  6.29038e+00 -2.50758e+00
       O  3.67516e+00 -6.65960e-01  5.66485e+00
       O -1.18927e+00  2.74402e+00 -2.19804e+00
       O -3.84635e+00 -3.29604e+00 -1.16851e+01
       O -4.87181e+00  4.26246e+00 -8.95057e+00
       O -7.32073e+00  7.26782e-01  3.61927e-01
       O -1.03055e+01  1.69482e+00  1.01123e+01
       O  7.05520e+00 -3.87929e+00  7.79749e-01
       O -2.67819e+00  1.07330e+01  3.03021e+00
       O -1.12491e+01 -9.47855e-01  2.37065e-01
       O -9.78740e+00 -8.25968e+00 -6.73845e+00
       O  3.44145e+00  1.00712e+00  1.30644e+01
       O  2.41674e+00 -3.05786e+00  4.82131e+00
       O  2.89804e+00 -3.54583e+00  1.79026e+00
       O  8.25237e+00 -1.98927e+00 -3.98048e+00
       O -8.99918e+00 -6.82517e+00 -4.14113e+00
       O -5.37254e+00 -1.31997e+00  2.00458e+00
       O  4.61709e+00 -5.74768e+00 -1.75217e+00
       O  6.68450e+00  7.28056e+00  3.05630e+00
       O  6.41406e-01 -9.39491e-01  2.24224e+00
       O -4.11813e+00 -8.04843e-01 -3.24161e-01
       O  5.39592e+00 -7.04928e+00 -6.58614e+00
       H -5.52035e-01  7.13048e+00 -5.35640e+00
       H  8.14041e-01  6.46199e+00 -5.61273e+00
       H  4.14733e+00 -6.33084e+00 -3.61129e+00
       H  4.32786e+00 -6.67138e+00 -5.10795e+00
       H  2.04136e+00  5.72384e+00  6.36858e-01
       H  7.30381e-01  4.80043e+00  5.61898e-01
       H -1.51914e+00 -4.14450e+00 -3.28623e+00
       H -1.05471e+00  4.26413e+00 -2.69249e+00
       H -4.63940e+00 -5.12322e+00  4.36671e+00
       H -4.33630e+00 -3.61553e+00  3.78419e+00
       H  1.05277e+01 -2.73290e-01  7.62260e+00
       H  1.08073e+01 -1.77331e+00  7.63190e+00
       H  5.71180e+00  2.50433e+00 -1.80137e+00
       H  6.00923e+00  1.09384e+00 -1.07528e+00
       H  6.23710e+00  6.42558e-01 -3.49314e+00
       H  5.24615e+00 -4.59650e-01 -3.87221e+00
       H -5.75363e-01  3.34287e+00  1.17075e+01
       H -7.39522e-01  4.79405e+00  1.24257e+01
       H -7.99171e+00  1.93879e+00 -3.00158e+00
       H -7.15792e+00  5.97158e-01 -3.06900e+00
       H  5.54516e-01  5.88201e+00 -2.52147e+00
       H  1.73817e+00  5.85555e+00 -1.72312e+00
       H  3.10481e+00 -1.40766e+00  5.31956e+00
       H  3.56178e+00  5.01161e-02  4.95806e+00
       H -6.15443e-01  2.25114e+00 -2.84184e+00
       H -2.09087e+00  2.32670e+00 -2.40273e+00
       H -4.21249e+00 -2.39217e+00 -1.14812e+01
       H -3.38055e+00 -3.14307e+00 -2.71490e+00
       H -5.54727e+00  4.88172e+00 -8.51940e+00
       H -4.08439e+00  4.88968e+00 -8.88434e+00
       H -7.39111e+00 -2.47381e-01  4.36974e-01
       H -7.39475e+00  9.46344e-01 -1.04434e+01
       H -9.34736e+00  1.42431e+00  1.00860e+01
       H -1.04777e+01  2.24351e+00  9.29789e+00
       H  6.99522e+00 -3.55675e+00 -1.37028e-01
       H  7.80751e+00 -4.52292e+00  8.50374e-01
       H -1.78971e+00  1.11921e+01  3.12026e+00
       H -2.94303e+00  1.05068e+01 -5.83559e+00
       H -9.30381e-01 -1.28976e+00 -5.27657e-01
       H -1.09460e+01 -2.31382e-03  2.79041e-01
       H -9.37498e+00 -8.09346e+00 -5.91501e+00
       H -9.66998e+00 -9.23688e+00 -7.05452e+00
       H  2.72664e+00  9.46772e-01  1.24219e+01
       H  3.99321e+00  1.73832e+00  1.28152e+01
       H  2.11604e+00 -3.22996e+00  5.75207e+00
       H  3.25942e+00 -3.56252e+00  4.72895e+00
       H  2.49126e+00 -3.50393e+00  2.65179e+00
       H  3.44329e+00 -1.24616e+01  1.75131e+00
       H  7.55448e+00 -1.27574e+00 -4.17029e+00
       H  8.96576e+00 -1.62753e+00 -3.40160e+00
       H -8.10394e+00 -6.57626e+00 -4.36056e+00
       H -9.42310e+00  3.83594e+00 -4.04475e+00
       H  4.12708e+00 -4.77442e-01  2.40485e+00
       H -4.51407e+00 -1.57787e+00  2.42805e+00
       H  5.04006e+00 -4.85096e+00 -1.91185e+00
       H  4.40684e+00 -5.61768e+00 -8.03938e-01
       H  7.40154e+00  7.76239e+00  3.58450e+00
       H  7.11869e+00  1.66341e+01  2.24776e+00
       H -2.96879e-02 -1.20126e+00  1.63960e+00
       H  6.96334e-01 -1.67748e+00  2.83156e+00
       H -3.26962e+00 -8.60466e-01  1.07021e-01
       H -4.70988e+00 -8.01594e-01 -9.33866e+00
       H  5.37202e+00 -6.64255e+00  2.32358e+00
       H  6.12172e+00 -7.69678e+00  3.14617e+00
96
# CELL(abcABC):    9.81490     9.81490     9.81490    90.00000    90.00000    90.00000  Traj: positions{angstrom} Step:        2790  Bead:       0 
       O -1.30480e-03  6.60394e+00 -6.50432e+00
       O  3.93884e+00 -5.57577e+00 -4.45815e+00
       O  2.22607e+00  5.05715e+00 -2.36683e-01
       O -5.46778e-01  4.22720e+00 -3.29239e+00
       O -2.66263e+00 -4.55174e+00  4.97039e+00
       O  9.36586e+00 -9.78748e-01  7.71782e+00
       O  5.52631e+00  1.59991e+00 -1.82282e+00
       O  5.96562e+00 -3.78624e-01 -4.21137e+00
       O -2.53512e-01  4.75171e+00  1.10699e+01
       O -7.88107e+00  3.60601e-01 -2.59752e+00
       O  7.24211e-01  6.25582e+00 -2.18962e+00
       O  3.28662e+00 -8.88285e-01  5.04425e+00
       O -1.54850e+00  1.94556e+00 -2.06278e+00
       O -3.74047e+00 -3.49899e+00 -1.17045e+01
       O -4.32077e+00  4.76589e+00 -8.38080e+00
       O -7.59787e+00  5.36849e-01  5.30780e-01
       O -1.04865e+01  1.88906e+00  1.03005e+01
       O  7.40596e+00 -3.63180e+00  3.40100e-01
       O -2.78327e+00  1.07304e+01  3.42806e+00
       O -1.22229e+01 -8.97539e-02  6.02854e-01
       O -9.84418e+00 -8.30889e+00 -6.12156e+00
       O  3.22739e+00  1.22263e+00  1.29973e+01
       O  2.23405e+00 -3.36673e+00  5.07766e+00
       O  3.39469e+00 -3.45527e+00  2.19984e+00
       O  8.30681e+00 -2.05229e+00 -4.47532e+00
       O -8.43975e+00 -7.08377e+00 -4.14671e+00
       O -5.36523e+00 -1.20907e+00  2.02548e+00
       O  4.33310e+00 -5.74979e+00 -1.78777e+00
       O  6.87062e+00  7.47066e+00  2.86050e+00
       O  2.06652e-01 -9.22667e-01  1.68544e+00
       O -4.64790e+00 -9.47939e-01 -7.43253e-01
       O  5.90136e+00 -6.55838e+00 -6.19766e+00
       H -6.32132e-01  7.13318e+00 -5.91788e+00
       H  6.40591e-01  6.18879e+00 -5.92705e+00
       H  4.10037e+00 -5.68581e+00 -3.46953e+00
       H  4.75074e+00 -5.71754e+00 -4.93730e+00
       H  2.72792e+00  5.56417e+00  4.13493e-01
       H  1.39709e+00  4.81946e+00  2.41015e-01
       H -1.22949e+00 -5.35700e+00 -3.97096e+00
       H -8.26583e-01  3.36215e+00 -2.94199e+00
       H -3.23943e+00 -5.20703e+00  4.49616e+00
       H -2.62913e+00 -3.80876e+00  4.41826e+00
       H  1.01709e+01 -4.10683e-01  7.66719e+00
       H  9.72381e+00 -1.76348e+00  8.12095e+00
       H  4.95238e+00  2.41008e+00 -1.67633e+00
       H  5.16247e+00  7.60671e-01 -1.51911e+00
       H  6.17781e+00  4.56288e-01 -3.75553e+00
       H  5.00757e+00 -5.11917e-01 -4.33043e+00
       H -4.83326e-01  3.82488e+00  1.11493e+01
       H -1.28481e-01  5.18871e+00  1.19068e+01
       H -8.05328e+00  1.13707e+00 -3.19224e+00
       H -7.40514e+00 -2.38349e-01 -3.21560e+00
       H  2.03701e-01  5.41417e+00 -2.41164e+00
       H  1.43506e+00  6.00610e+00 -1.46783e+00
       H  2.97803e+00 -1.76723e+00  4.62798e+00
       H  3.18739e+00 -2.42015e-01  4.29714e+00
       H -1.44957e+00  1.05927e+00 -2.49074e+00
       H -2.51878e+00  1.92290e+00 -1.81433e+00
       H -4.09813e+00 -2.61942e+00 -1.14384e+01
       H -3.44576e+00 -3.54440e+00 -2.83650e+00
       H -4.95024e+00  5.36886e+00 -7.96974e+00
       H -3.59755e+00  5.31954e+00 -8.82944e+00
       H -8.31220e+00 -1.08758e-01  7.90121e-01
       H -7.37805e+00  6.37788e-01 -1.02287e+01
       H -9.57662e+00  1.60327e+00  1.03904e+01
       H -1.05652e+01  2.01622e+00  9.31137e+00
       H  7.17071e+00 -3.63271e+00 -6.35742e-01
       H  8.30987e+00 -4.03877e+00  4.56669e-01
       H -1.83789e+00  1.07931e+01  3.78780e+00
       H -3.33458e+00  1.02879e+01 -5.60379e+00
       H -1.79863e+00  7.47671e-01  5.71444e-01
       H -1.27141e+01 -2.46941e-02  1.38961e+00
       H -9.30858e+00 -7.99511e+00 -5.43295e+00
       H -9.53689e+00 -9.19568e+00 -6.52231e+00
       H  2.75105e+00  1.37604e+00  1.21733e+01
       H  3.92283e+00  1.81341e+00  1.31739e+01
       H  1.81272e+00 -3.45690e+00  5.95876e+00
       H  2.87627e+00 -4.11258e+00  5.16852e+00
       H  2.80422e+00 -3.51757e+00  3.01685e+00
       H  3.70263e+00 -1.22951e+01  2.31096e+00
       H  7.37660e+00 -1.72551e+00 -4.46385e+00
       H  8.84569e+00 -1.63379e+00 -3.75329e+00
       H -7.57842e+00 -6.67531e+00 -4.59459e+00
       H -8.97194e+00  3.50137e+00 -3.75834e+00
       H  4.16742e+00 -3.91661e-01  2.45199e+00
       H -4.53917e+00 -1.65832e+00  2.46184e+00
       H  4.98048e+00 -4.98415e+00 -1.65660e+00
       H  3.57839e+00 -5.40331e+00 -1.22016e+00
       H  7.28954e+00  8.28861e+00  3.03776e+00
       H  7.09919e+00  1.70403e+01  1.96172e+00
       H -5.99685e-01 -8.36815e-01  1.14667e+00
       H  1.13520e-01 -1.79890e+00  2.12746e+00
       H -3.89084e+00 -5.38816e-01 -2.64872e-01
       H -5.33517e+00 -9.37632e-01 -9.86329e+00
       H  5.72898e+00 -6.10154e+00  2.71704e+00
       H  6.34235e+00 -7.42377e+00  3.48887e+00
96
# CELL(abcABC):    9.81490     9.81490     9.81490    90.00000    90.00000    90.00000  Traj: positions{angstrom} Step:        3590  Bead:       0 
       O  1.95796e-01  5.56287e+00 -6.66650e+00
       O  4.01325e+00 -5.40128e+00 -4.52312e+00
       O  2.02365e+00  5.41139e+00 -1.14377e+00
       O -9.44625e-01  4.33945e+00 -3.32963e+00
       O -3.05690e+00 -4.38053e+00  5.45714e+00
       O  9.60300e+00 -6.27737e-01  6.29374e+00
       O  6.18477e+00  1.47946e+00 -1.95378e+00
       O  5.36263e+00  6.31700e-02 -4.09689e+00
       O -3.42405e-02  4.42828e+00  1.04299e+01
       O -7.15147e+00  7.02192e-01 -2.07906e+00
       O  7.73317e-01  6.69300e+00 -2.96513e+00
       O  2.61405e+00 -7.89271e-01  5.12357e+00
       O -9.27061e-01  1.85251e+00 -2.26415e+00
       O -2.75133e+00 -2.37728e+00 -1.16084e+01
       O -5.12319e+00  4.35906e+00 -8.82454e+00
       O -7.86500e+00  2.12092e-02  7.82936e-01
       O -1.00915e+01  1.54567e+00  1.02002e+01
       O  7.30083e+00 -4.26337e+00  3.55714e-01
       O -2.61027e+00  1.10645e+01  4.08748e+00
       O -1.19100e+01  9.40227e-02  1.60442e+00
       O -9.69096e+00 -8.17716e+00 -5.15650e+00
       O  2.63754e+00  1.15188e+00  1.30226e+01
       O  2.30763e+00 -3.52897e+00  4.82259e+00
       O  2.97920e+00 -3.32871e+00  1.47480e+00
       O  7.31259e+00 -1.67508e+00 -4.40537e+00
       O -7.90815e+00 -6.80717e+00 -3.40395e+00