       #
       # Generated by the Wannier90 code http://www.wannier.org
       # On 14Jul2015 at 15:12:32 
       #
CRYSTAL
PRIMVEC
  -1.6139900   0.0000000   1.6139900
   0.0000000   1.6139900   1.6139900
  -1.6139900   1.6139900   0.0000000
CONVVEC
  -1.6139900   0.0000000   1.6139900
   0.0000000   1.6139900   1.6139900
  -1.6139900   1.6139900   0.0000000
PRIMCOORD
     2  1
C       0.4034975  -0.4034975  -0.4034975
C      -0.4034975   0.4034975   0.4034975


BEGIN_BLOCK_DATAGRID_3D
3D_field
BEGIN_DATAGRID_3D_UNKNOWN
    54    54    54
    3.407312   -3.407312   -3.407312
  -4.7523039   0.0000000   4.7523039
   0.0000000   4.7523039   4.7523039
  -4.7523039   4.7523039   0.0000000
 -0.47373E-02 -0.13929E-02  0.52748E-03  0.11958E-02  0.15265E-02  0.20487E-02
  0.25332E-02  0.25332E-02  0.20487E-02  0.15265E-02  0.11958E-02  0.52748E-03
 -0.13929E-02 -0.47373E-02 -0.82222E-02 -0.97920E-02 -0.82511E-02 -0.42791E-02
  0.16390E-03  0.33925E-02  0.50168E-02  0.56792E-02  0.60676E-02  0.62700E-02
  0.59752E-02  0.51066E-02  0.40691E-02  0.32823E-02  0.26015E-02  0.14824E-02
 -0.18439E-03 -0.16611E-02 -0.20591E-02 -0.13469E-02 -0.35890E-03  0.21180E-03
  0.51111E-03  0.10854E-02  0.20356E-02  0.28931E-02  0.32225E-02  0.30748E-02
  0.28405E-02  0.28405E-02  0.30748E-02  0.32225E-02  0.28931E-02  0.20356E-02
  0.10854E-02  0.51110E-03  0.21180E-03 -0.35890E-03 -0.13469E-02 -0.20591E-02
 -0.13929E-02  0.80861E-03  0.19019E-02  0.25050E-02  0.31991E-02  0.39329E-02
  0.42594E-02  0.39329E-02  0.31991E-02  0.25050E-02  0.19019E-02  0.80861E-03
 -0.13929E-02 -0.43671E-02 -0.66134E-02 -0.65840E-02 -0.41304E-02 -0.69026E-03
  0.20470E-02  0.35640E-02  0.45706E-02  0.58400E-02  0.72231E-02  0.78446E-02
  0.71097E-02  0.53629E-02  0.35202E-02  0.21437E-02  0.10272E-02 -0.24969E-03
 -0.15377E-02 -0.21529E-02 -0.17194E-02 -0.70688E-03  0.72982E-04  0.35014E-03
  0.53027E-03  0.10062E-02  0.16248E-02  0.19315E-02  0.17460E-02  0.13421E-02
  0.11436E-02  0.13421E-02  0.17460E-02  0.19315E-02  0.16248E-02  0.10062E-02
  0.53027E-03  0.35013E-03  0.72981E-04 -0.70687E-03 -0.17194E-02 -0.21528E-02
  0.52748E-03  0.19019E-02  0.29407E-02  0.39741E-02  0.49472E-02  0.55511E-02
  0.55511E-02  0.49472E-02  0.39741E-02  0.29407E-02  0.19019E-02  0.52748E-03
 -0.14208E-02 -0.34086E-02 -0.42588E-02 -0.32663E-02 -0.10474E-02  0.10409E-02
  0.23314E-02  0.34115E-02  0.51554E-02  0.74293E-02  0.90045E-02  0.87309E-02
  0.66435E-02  0.38838E-02  0.16457E-02  0.27837E-03 -0.62843E-03 -0.14512E-02
 -0.20168E-02 -0.19224E-02 -0.11942E-02 -0.39298E-03 -0.34685E-04 -0.94558E-04
 -0.20368E-03 -0.20627E-03 -0.33323E-03 -0.83423E-03 -0.15909E-02 -0.21615E-02
 -0.21615E-02 -0.15909E-02 -0.83424E-03 -0.33324E-03 -0.20627E-03 -0.20368E-03
 -0.94562E-04 -0.34687E-04 -0.39297E-03 -0.11942E-02 -0.19224E-02 -0.20168E-02
  0.11958E-02  0.25050E-02  0.39741E-02  0.53022E-02  0.61383E-02  0.64042E-02
  0.61383E-02  0.53022E-02  0.39741E-02  0.25050E-02  0.11958E-02 -0.32839E-04
 -0.13188E-02 -0.22998E-02 -0.23095E-02 -0.12374E-02  0.20115E-03  0.13355E-02
  0.24163E-02  0.42122E-02  0.67540E-02  0.88553E-02  0.90867E-02  0.71177E-02
  0.39958E-02  0.12056E-02 -0.44574E-03 -0.11369E-02 -0.14842E-02 -0.18325E-02
 -0.20537E-02 -0.19149E-02 -0.15006E-02 -0.11901E-02 -0.12691E-02 -0.16903E-02
 -0.22602E-02 -0.29519E-02 -0.39017E-02 -0.50968E-02 -0.61725E-02 -0.66123E-02
 -0.61725E-02 -0.50968E-02 -0.39017E-02 -0.29519E-02 -0.22602E-02 -0.16903E-02
 -0.12691E-02 -0.11901E-02 -0.15006E-02 -0.19149E-02 -0.20537E-02 -0.18325E-02
  0.15265E-02  0.31991E-02  0.49472E-02  0.61383E-02  0.66241E-02  0.66241E-02
  0.61383E-02  0.49472E-02  0.31991E-02  0.15265E-02  0.38295E-03 -0.39275E-03
 -0.10992E-02 -0.15657E-02 -0.13924E-02 -0.60842E-03  0.37736E-03  0.14854E-02
  0.31314E-02  0.54135E-02  0.74380E-02  0.78722E-02  0.61982E-02  0.32356E-02
  0.42542E-03 -0.12660E-02 -0.18088E-02 -0.17904E-02 -0.18158E-02 -0.21076E-02
 -0.24911E-02 -0.27009E-02 -0.27181E-02 -0.28050E-02 -0.32270E-02 -0.40235E-02
 -0.50977E-02 -0.64245E-02 -0.80038E-02 -0.95902E-02 -0.10631E-01 -0.10631E-01
 -0.95902E-02 -0.80038E-02 -0.64245E-02 -0.50977E-02 -0.40235E-02 -0.32270E-02
 -0.28050E-02 -0.27181E-02 -0.27009E-02 -0.24911E-02 -0.21076E-02 -0.18158E-02
  0.20487E-02  0.39329E-02  0.55511E-02  0.64043E-02  0.66241E-02  0.64043E-02
  0.55511E-02  0.39329E-02  0.20487E-02  0.66797E-03 -0.19063E-04 -0.47492E-03
 -0.10248E-02 -0.14028E-02 -0.12159E-02 -0.47431E-03  0.61450E-03  0.20614E-02
  0.38590E-02  0.54153E-02  0.57080E-02  0.42303E-02  0.16007E-02 -0.92433E-03
 -0.24389E-02 -0.28535E-02 -0.26375E-02 -0.23641E-02 -0.24192E-02 -0.28564E-02
 -0.34130E-02 -0.37856E-02 -0.39688E-02 -0.42685E-02 -0.49702E-02 -0.61097E-02
 -0.76061E-02 -0.94315E-02 -0.11451E-01 -0.13158E-01 -0.13842E-01 -0.13158E-01
 -0.11451E-01 -0.94315E-02 -0.76061E-02 -0.61097E-02 -0.49702E-02 -0.42685E-02
 -0.39688E-02 -0.37856E-02 -0.34130E-02 -0.28564E-02 -0.24192E-02 -0.23641E-02
  0.25333E-02  0.42594E-02  0.55511E-02  0.61383E-02  0.61383E-02  0.55511E-02
  0.42594E-02  0.25332E-02  0.10677E-02  0.28464E-03 -0.11469E-03 -0.63950E-03
 -0.12630E-02 -0.14847E-02 -0.10036E-02  0.12999E-04  0.12809E-02  0.26084E-02
  0.36207E-02  0.36527E-02  0.22920E-02 -0.42442E-04 -0.23249E-02 -0.37485E-02
 -0.42073E-02 -0.40639E-02 -0.37232E-02 -0.34849E-02 -0.35343E-02 -0.38461E-02
 -0.41819E-02 -0.43614E-02 -0.45181E-02 -0.49745E-02 -0.59160E-02 -0.73294E-02
 -0.91980E-02 -0.11485E-01 -0.13807E-01 -0.15338E-01 -0.15338E-01 -0.13807E-01
 -0.11485E-01 -0.91980E-02 -0.73294E-02 -0.59160E-02 -0.49745E-02 -0.45181E-02
 -0.43614E-02 -0.41819E-02 -0.38461E-02 -0.35343E-02 -0.34849E-02 -0.37232E-02
  0.25333E-02  0.39329E-02  0.49472E-02  0.53022E-02  0.49472E-02  0.39329E-02
  0.25333E-02  0.12752E-02  0.53096E-03  0.11984E-03 -0.42338E-03 -0.11685E-02
 -0.16206E-02 -0.13023E-02 -0.28952E-03  0.94661E-03  0.19980E-02  0.26019E-02
  0.24466E-02  0.12750E-02 -0.72640E-03 -0.28755E-02 -0.44917E-02 -0.53635E-02
 -0.56747E-02 -0.56403E-02 -0.53761E-02 -0.50153E-02 -0.47172E-02 -0.45281E-02
 -0.43849E-02 -0.43124E-02 -0.44988E-02 -0.51273E-02 -0.62540E-02 -0.79167E-02
 -0.10178E-01 -0.12831E-01 -0.15120E-01 -0.16042E-01 -0.15120E-01 -0.12831E-01
 -0.10178E-01 -0.79167E-02 -0.62540E-02 -0.51273E-02 -0.44988E-02 -0.43124E-02
 -0.43849E-02 -0.45281E-02 -0.47172E-02 -0.50153E-02 -0.53761E-02 -0.56403E-02
  0.20487E-02  0.31991E-02  0.39741E-02  0.39741E-02  0.31991E-02  0.20487E-02
  0.10677E-02  0.53096E-03  0.20830E-03 -0.35051E-03 -0.12199E-02 -0.18806E-02
 -0.17074E-02 -0.62593E-03  0.81256E-03  0.19455E-02  0.24368E-02  0.22336E-02
  0.13357E-02 -0.21060E-03 -0.21695E-02 -0.41455E-02 -0.57982E-02 -0.69640E-02
 -0.75850E-02 -0.76345E-02 -0.71669E-02 -0.63690E-02 -0.54907E-02 -0.47397E-02
 -0.42621E-02 -0.41639E-02 -0.44955E-02 -0.52628E-02 -0.65268E-02 -0.84279E-02
 -0.10938E-01 -0.13527E-01 -0.15222E-01 -0.15222E-01 -0.13527E-01 -0.10938E-01
 -0.84279E-02 -0.65268E-02 -0.52628E-02 -0.44955E-02 -0.41639E-02 -0.42621E-02
 -0.47397E-02 -0.54907E-02 -0.63690E-02 -0.71669E-02 -0.76345E-02 -0.75850E-02
  0.15265E-02  0.25050E-02  0.29407E-02  0.25050E-02  0.15265E-02  0.66797E-03
  0.28464E-03  0.11984E-03 -0.35051E-03 -0.12763E-02 -0.21595E-02 -0.22484E-02
 -0.12250E-02  0.48009E-03  0.20324E-02  0.28277E-02  0.28033E-02  0.22006E-02
  0.11376E-02 -0.50393E-03 -0.27865E-02 -0.54074E-02 -0.77577E-02 -0.92936E-02
 -0.98249E-02 -0.94781E-02 -0.84929E-02 -0.71328E-02 -0.57314E-02 -0.46647E-02
 -0.41702E-02 -0.42219E-02 -0.46626E-02 -0.54697E-02 -0.68180E-02 -0.88112E-02
 -0.11146E-01 -0.13088E-01 -0.13848E-01 -0.13088E-01 -0.11146E-01 -0.88112E-02
 -0.68180E-02 -0.54697E-02 -0.46626E-02 -0.42219E-02 -0.41702E-02 -0.46647E-02
 -0.57314E-02 -0.71328E-02 -0.84929E-02 -0.94781E-02 -0.98249E-02 -0.92936E-02
  0.11958E-02  0.19019E-02  0.19019E-02  0.11958E-02  0.38295E-03 -0.19065E-04
 -0.11469E-03 -0.42338E-03 -0.12199E-02 -0.21595E-02 -0.25186E-02 -0.17751E-02
 -0.45835E-04  0.19426E-02  0.33579E-02  0.38525E-02  0.36604E-02  0.30525E-02
  0.17877E-02 -0.66471E-03 -0.42909E-02 -0.81276E-02 -0.10898E-01 -0.12001E-01
 -0.11737E-01 -0.10679E-01 -0.91269E-02 -0.72662E-02 -0.55122E-02 -0.43707E-02
 -0.39822E-02 -0.40708E-02 -0.44085E-02 -0.51364E-02 -0.64990E-02 -0.83725E-02
 -0.10192E-01 -0.11301E-01 -0.11301E-01 -0.10192E-01 -0.83725E-02 -0.64990E-02
 -0.51364E-02 -0.44085E-02 -0.40708E-02 -0.39822E-02 -0.43707E-02 -0.55122E-02
 -0.72662E-02 -0.91269E-02 -0.10679E-01 -0.11737E-01 -0.12001E-01 -0.10898E-01
  0.52748E-03  0.80861E-03  0.52748E-03 -0.32841E-04 -0.39275E-03 -0.47492E-03
 -0.63951E-03 -0.11685E-02 -0.18806E-02 -0.22484E-02 -0.17751E-02 -0.31554E-03
  0.17663E-02  0.37364E-02  0.49952E-02  0.55095E-02  0.55260E-02  0.47799E-02
  0.23604E-02 -0.22113E-02 -0.78734E-02 -0.12475E-01 -0.14535E-01 -0.14307E-01
 -0.12999E-01 -0.11345E-01 -0.93151E-02 -0.69689E-02 -0.49113E-02 -0.36945E-02
 -0.31939E-02 -0.29471E-02 -0.29158E-02 -0.35257E-02 -0.49732E-02 -0.68081E-02
 -0.82700E-02 -0.88141E-02 -0.82700E-02 -0.68081E-02 -0.49732E-02 -0.35257E-02
 -0.29158E-02 -0.29471E-02 -0.31939E-02 -0.36945E-02 -0.49113E-02 -0.69689E-02
 -0.93151E-02 -0.11345E-01 -0.12999E-01 -0.14307E-01 -0.14535E-01 -0.12475E-01
 -0.13929E-02 -0.13929E-02 -0.14208E-02 -0.13188E-02 -0.10992E-02 -0.10248E-02
 -0.12630E-02 -0.16206E-02 -0.17074E-02 -0.12250E-02 -0.45835E-04  0.17663E-02
  0.38650E-02  0.57518E-02  0.71836E-02  0.81984E-02  0.83973E-02  0.64850E-02
  0.12987E-02 -0.63930E-02 -0.13665E-01 -0.17637E-01 -0.17850E-01 -0.16100E-01
 -0.14128E-01 -0.12113E-01 -0.95005E-02 -0.64960E-02 -0.40235E-02 -0.25052E-02
 -0.14572E-02 -0.45159E-03  0.85340E-04 -0.59469E-03 -0.25080E-02 -0.47465E-02
 -0.61940E-02 -0.61940E-02 -0.47465E-02 -0.25080E-02 -0.59469E-03  0.85341E-04
 -0.45159E-03 -0.14572E-02 -0.25052E-02 -0.40235E-02 -0.64960E-02 -0.95005E-02
 -0.12113E-01 -0.14128E-01 -0.16100E-01 -0.17850E-01 -0.17637E-01 -0.13665E-01
 -0.47373E-02 -0.43671E-02 -0.34086E-02 -0.22998E-02 -0.15657E-02 -0.14028E-02
 -0.14847E-02 -0.13023E-02 -0.62593E-03  0.48009E-03  0.19426E-02  0.37364E-02
  0.57518E-02  0.78748E-02  0.10037E-01  0.11652E-01  0.10990E-01  0.59985E-02
 -0.33787E-02 -0.13927E-01 -0.21140E-01 -0.22914E-01 -0.20929E-01 -0.18221E-01
 -0.16016E-01 -0.13453E-01 -0.98265E-02 -0.59278E-02 -0.29295E-02 -0.83748E-03
  0.11703E-02  0.31846E-02  0.41227E-02  0.29979E-02  0.20868E-03 -0.26098E-02
 -0.37760E-02 -0.26098E-02  0.20868E-03  0.29979E-02  0.41227E-02  0.31846E-02
  0.11703E-02 -0.83748E-03 -0.29295E-02 -0.59278E-02 -0.98265E-02 -0.13453E-01
 -0.16016E-01 -0.18221E-01 -0.20929E-01 -0.22914E-01 -0.21140E-01 -0.13927E-01
 -0.82222E-02 -0.66134E-02 -0.42588E-02 -0.23095E-02 -0.13924E-02 -0.12159E-02
 -0.10036E-02 -0.28952E-03  0.81256E-03  0.20324E-02  0.33579E-02  0.49953E-02
  0.71836E-02  0.10037E-01  0.12995E-01  0.14064E-01  0.10307E-01  0.35053E-03
 -0.13182E-01 -0.24606E-01 -0.29513E-01 -0.28212E-01 -0.24516E-01 -0.21427E-01
 -0.18762E-01 -0.14935E-01 -0.98491E-02 -0.50598E-02 -0.15834E-02  0.12627E-02
  0.44633E-02  0.75010E-02  0.86481E-02  0.69530E-02  0.35319E-02  0.85048E-03
  0.85048E-03  0.35319E-02  0.69530E-02  0.86481E-02  0.75010E-02  0.44633E-02
  0.12627E-02 -0.15834E-02 -0.50598E-02 -0.98491E-02 -0.14935E-01 -0.18762E-01
 -0.21427E-01 -0.24516E-01 -0.28212E-01 -0.29513E-01 -0.24606E-01 -0.13182E-01
 -0.97920E-02 -0.65841E-02 -0.32663E-02 -0.12374E-02 -0.60842E-03 -0.47431E-03
  0.12999E-04  0.94661E-03  0.19455E-02  0.28277E-02  0.38525E-02  0.55095E-02
  0.81984E-02  0.11652E-01  0.14064E-01  0.12080E-01  0.29835E-02 -0.12087E-01
 -0.27463E-01 -0.36696E-01 -0.37602E-01 -0.33386E-01 -0.28692E-01 -0.25163E-01
 -0.21252E-01 -0.15572E-01 -0.90974E-02 -0.37556E-02  0.11255E-03  0.38796E-02
  0.83795E-02  0.12400E-01  0.13854E-01  0.12179E-01  0.92411E-02  0.78274E-02
  0.92411E-02  0.12179E-01  0.13854E-01  0.12400E-01  0.83795E-02  0.38796E-02
  0.11255E-03 -0.37556E-02 -0.90974E-02 -0.15572E-01 -0.21252E-01 -0.25163E-01
 -0.28692E-01 -0.33386E-01 -0.37602E-01 -0.36696E-01 -0.27463E-01 -0.12087E-01
 -0.82511E-02 -0.41304E-02 -0.10474E-02  0.20114E-03  0.37736E-03  0.61450E-03
  0.12809E-02  0.19980E-02  0.24368E-02  0.28033E-02  0.36604E-02  0.55260E-02
  0.83973E-02  0.10990E-01  0.10307E-01  0.29835E-02 -0.11576E-01 -0.29103E-01
 -0.42486E-01 -0.46978E-01 -0.43646E-01 -0.37491E-01 -0.32359E-01 -0.28148E-01
 -0.22734E-01 -0.15521E-01 -0.82185E-02 -0.24862E-02  0.20957E-02  0.71544E-02
  0.13086E-01  0.18205E-01  0.20507E-01  0.19939E-01  0.18589E-01  0.18589E-01
  0.19939E-01  0.20507E-01  0.18205E-01  0.13086E-01  0.71543E-02  0.20957E-02
 -0.24862E-02 -0.82185E-02 -0.15521E-01 -0.22734E-01 -0.28148E-01 -0.32359E-01
 -0.37491E-01 -0.43646E-01 -0.46978E-01 -0.42486E-01 -0.29103E-01 -0.11576E-01
 -0.42791E-02 -0.69026E-03  0.10409E-02  0.13355E-02  0.14854E-02  0.20614E-02
  0.26084E-02  0.26019E-02  0.22336E-02  0.22006E-02  0.30525E-02  0.47799E-02
  0.64850E-02  0.59985E-02  0.35054E-03 -0.12087E-01 -0.29103E-01 -0.44733E-01
 -0.52981E-01 -0.52236E-01 -0.46075E-01 -0.39598E-01 -0.35053E-01 -0.30987E-01
 -0.25114E-01 -0.17229E-01 -0.91039E-02 -0.21204E-02  0.41959E-02  0.11097E-01
  0.18572E-01  0.24954E-01  0.28644E-01  0.29789E-01  0.29882E-01  0.29789E-01
  0.28644E-01  0.24954E-01  0.18572E-01  0.11097E-01  0.41959E-02 -0.21204E-02
 -0.91039E-02 -0.17229E-01 -0.25114E-01 -0.30987E-01 -0.35053E-01 -0.39598E-01
 -0.46075E-01 -0.52236E-01 -0.52981E-01 -0.44733E-01 -0.29103E-01 -0.12087E-01
  0.16390E-03  0.20470E-02  0.23314E-02  0.24163E-02  0.31314E-02  0.38590E-02
  0.36207E-02  0.24467E-02  0.13357E-02  0.11376E-02  0.17877E-02  0.23604E-02
  0.12987E-02 -0.33787E-02 -0.13182E-01 -0.27463E-01 -0.42486E-01 -0.52981E-01
 -0.55627E-01 -0.51536E-01 -0.45267E-01 -0.41018E-01 -0.39400E-01 -0.37603E-01
 -0.32522E-01 -0.23635E-01 -0.12984E-01 -0.27826E-02  0.64622E-02  0.15433E-01
  0.24206E-01  0.31642E-01  0.36538E-01  0.38747E-01  0.38747E-01  0.36538E-01
  0.31642E-01  0.24206E-01  0.15433E-01  0.64622E-02 -0.27826E-02 -0.12984E-01
 -0.23635E-01 -0.32522E-01 -0.37603E-01 -0.39400E-01 -0.41018E-01 -0.45267E-01
 -0.51536E-01 -0.55627E-01 -0.52981E-01 -0.42486E-01 -0.27463E-01 -0.13182E-01
  0.33925E-02  0.35640E-02  0.34115E-02  0.42122E-02  0.54135E-02  0.54153E-02
  0.36527E-02  0.12750E-02 -0.21060E-03 -0.50393E-03 -0.66471E-03 -0.22113E-02
 -0.63930E-02 -0.13927E-01 -0.24606E-01 -0.36696E-01 -0.46978E-01 -0.52236E-01
 -0.51536E-01 -0.47450E-01 -0.44596E-01 -0.46010E-01 -0.50234E-01 -0.52079E-01
 -0.46845E-01 -0.34228E-01 -0.18167E-01 -0.31117E-02  0.92050E-02  0.19544E-01
  0.28753E-01  0.36397E-01  0.41410E-01  0.43131E-01  0.41410E-01  0.36397E-01
  0.28753E-01  0.19544E-01  0.92050E-02 -0.31117E-02 -0.18167E-01 -0.34228E-01
 -0.46845E-01 -0.52079E-01 -0.50234E-01 -0.46010E-01 -0.44596E-01 -0.47450E-01
 -0.51536E-01 -0.52236E-01 -0.46978E-01 -0.36696E-01 -0.24606E-01 -0.13927E-01
  0.50168E-02  0.45706E-02  0.51554E-02  0.67540E-02  0.74380E-02  0.57080E-02
  0.22920E-02 -0.72640E-03 -0.21695E-02 -0.27865E-02 -0.42909E-02 -0.78734E-02
 -0.13665E-01 -0.21140E-01 -0.29513E-01 -0.37602E-01 -0.43646E-01 -0.46075E-01
 -0.45267E-01 -0.44596E-01 -0.48554E-01 -0.58382E-01 -0.69220E-01 -0.72652E-01
 -0.63315E-01 -0.43380E-01 -0.20443E-01 -0.12230E-02  0.12501E-01  0.22631E-01
  0.31041E-01  0.37708E-01  0.41486E-01  0.41486E-01  0.37708E-01  0.31041E-01
  0.22631E-01  0.12501E-01 -0.12230E-02 -0.20443E-01 -0.43380E-01 -0.63315E-01
 -0.72652E-01 -0.69220E-01 -0.58382E-01 -0.48554E-01 -0.44596E-01 -0.45267E-01
 -0.46075E-01 -0.43646E-01 -0.37602E-01 -0.29513E-01 -0.21140E-01 -0.13665E-01
  0.56792E-02  0.58400E-02  0.74293E-02  0.88553E-02  0.78722E-02  0.42303E-02
 -0.42436E-04 -0.28755E-02 -0.41455E-02 -0.54074E-02 -0.81276E-02 -0.12475E-01
 -0.17637E-01 -0.22914E-01 -0.28212E-01 -0.33386E-01 -0.37491E-01 -0.39598E-01
 -0.41018E-01 -0.46010E-01 -0.58382E-01 -0.76102E-01 -0.89983E-01 -0.89647E-01
 -0.72023E-01 -0.43994E-01 -0.16555E-01  0.33661E-02  0.15761E-01  0.24095E-01
  0.30731E-01  0.35547E-01  0.37352E-01  0.35547E-01  0.30731E-01  0.24095E-01
  0.15761E-01  0.33661E-02 -0.16555E-01 -0.43994E-01 -0.72023E-01 -0.89647E-01
 -0.89983E-01 -0.76102E-01 -0.58382E-01 -0.46010E-01 -0.41018E-01 -0.39598E-01
 -0.37491E-01 -0.33386E-01 -0.28212E-01 -0.22914E-01 -0.17637E-01 -0.12475E-01
  0.60676E-02  0.72231E-02  0.90045E-02  0.90867E-02  0.61982E-02  0.16007E-02
 -0.23249E-02 -0.44917E-02 -0.57982E-02 -0.77577E-02 -0.10898E-01 -0.14535E-01
 -0.17850E-01 -0.20929E-01 -0.24516E-01 -0.28692E-01 -0.32359E-01 -0.35053E-01
 -0.39400E-01 -0.50234E-01 -0.69220E-01 -0.89983E-01 -0.10036E+00 -0.91507E-01
 -0.65493E-01 -0.33608E-01 -0.73308E-02  0.90179E-02  0.18015E-01  0.23872E-01
  0.28456E-01  0.31238E-01  0.31238E-01  0.28456E-01  0.23872E-01  0.18015E-01
  0.90179E-02 -0.73308E-02 -0.33608E-01 -0.65493E-01 -0.91507E-01 -0.10036E+00
 -0.89983E-01 -0.69220E-01 -0.50234E-01 -0.39400E-01 -0.35053E-01 -0.32359E-01
 -0.28692E-01 -0.24516E-01 -0.20929E-01 -0.17850E-01 -0.14535E-01 -0.10898E-01
  0.62700E-02  0.78446E-02  0.87309E-02  0.71177E-02  0.32356E-02 -0.92433E-03
 -0.37485E-02 -0.53635E-02 -0.69640E-02 -0.92936E-02 -0.12001E-01 -0.14307E-01
 -0.16100E-01 -0.18221E-01 -0.21427E-01 -0.25163E-01 -0.28148E-01 -0.30987E-01
 -0.37603E-01 -0.52079E-01 -0.72652E-01 -0.89647E-01 -0.91507E-01 -0.74297E-01
 -0.45240E-01 -0.16728E-01  0.29363E-02  0.13353E-01  0.18676E-01  0.22380E-01
  0.25193E-01  0.26302E-01  0.25193E-01  0.22380E-01  0.18676E-01  0.13353E-01
  0.29363E-02 -0.16728E-01 -0.45240E-01 -0.74297E-01 -0.91507E-01 -0.89647E-01
 -0.72652E-01 -0.52079E-01 -0.37603E-01 -0.30987E-01 -0.28148E-01 -0.25163E-01
 -0.21427E-01 -0.18221E-01 -0.16100E-01 -0.14307E-01 -0.12001E-01 -0.92936E-02
  0.59752E-02  0.71097E-02  0.66435E-02  0.39958E-02  0.42542E-03 -0.24389E-02
 -0.42074E-02 -0.56747E-02 -0.75850E-02 -0.98249E-02 -0.11737E-01 -0.12999E-01
 -0.14128E-01 -0.16016E-01 -0.18762E-01 -0.21252E-01 -0.22734E-01 -0.25114E-01
 -0.32522E-01 -0.46845E-01 -0.63315E-01 -0.72023E-01 -0.65493E-01 -0.45240E-01
 -0.20559E-01 -0.94177E-03  0.10172E-01  0.15191E-01  0.17909E-01  0.20125E-01
  0.21586E-01  0.21586E-01  0.20125E-01  0.17909E-01  0.15191E-01  0.10172E-01
 -0.94176E-03 -0.20559E-01 -0.45240E-01 -0.65493E-01 -0.72023E-01 -0.63315E-01
 -0.46845E-01 -0.32522E-01 -0.25114E-01 -0.22734E-01 -0.21252E-01 -0.18762E-01
 -0.16016E-01 -0.14128E-01 -0.12999E-01 -0.11737E-01 -0.98249E-02 -0.75850E-02
  0.51066E-02  0.53629E-02  0.38838E-02  0.12056E-02 -0.12660E-02 -0.28535E-02
 -0.40639E-02 -0.56403E-02 -0.76345E-02 -0.94781E-02 -0.10679E-01 -0.11345E-01
 -0.12113E-01 -0.13453E-01 -0.14935E-01 -0.15572E-01 -0.15521E-01 -0.17229E-01
 -0.23635E-01 -0.34228E-01 -0.43380E-01 -0.43994E-01 -0.33608E-01 -0.16728E-01
 -0.94177E-03  0.89878E-02  0.13347E-01  0.15057E-01  0.16308E-01  0.17456E-01
  0.17945E-01  0.17456E-01  0.16308E-01  0.15057E-01  0.13347E-01  0.89878E-02
 -0.94176E-03 -0.16728E-01 -0.33608E-01 -0.43994E-01 -0.43380E-01 -0.34228E-01
 -0.23635E-01 -0.17229E-01 -0.15521E-01 -0.15572E-01 -0.14935E-01 -0.13453E-01
 -0.12113E-01 -0.11345E-01 -0.10679E-01 -0.94781E-02 -0.76345E-02 -0.56403E-02
  0.40691E-02  0.35202E-02  0.16457E-02 -0.44574E-03 -0.18088E-02 -0.26375E-02
 -0.37232E-02 -0.53761E-02 -0.71669E-02 -0.84929E-02 -0.91269E-02 -0.93151E-02
 -0.95005E-02 -0.98265E-02 -0.98491E-02 -0.90974E-02 -0.82185E-02 -0.91039E-02
 -0.12984E-01 -0.18167E-01 -0.20443E-01 -0.16555E-01 -0.73308E-02  0.29363E-02
  0.10172E-01  0.13347E-01  0.14045E-01  0.14158E-01  0.14444E-01  0.14736E-01
  0.14736E-01  0.14444E-01  0.14158E-01  0.14045E-01  0.13347E-01  0.10172E-01
  0.29363E-02 -0.73308E-02 -0.16555E-01 -0.20443E-01 -0.18167E-01 -0.12984E-01
 -0.91039E-02 -0.82185E-02 -0.90974E-02 -0.98491E-02 -0.98265E-02 -0.95005E-02
 -0.93151E-02 -0.91269E-02 -0.84929E-02 -0.71669E-02 -0.53761E-02 -0.37232E-02
  0.32823E-02  0.21437E-02  0.27837E-03 -0.11369E-02 -0.17904E-02 -0.23641E-02
 -0.34849E-02 -0.50153E-02 -0.63690E-02 -0.71328E-02 -0.72662E-02 -0.69689E-02
 -0.64960E-02 -0.59278E-02 -0.50598E-02 -0.37556E-02 -0.24862E-02 -0.21204E-02
 -0.27826E-02 -0.31117E-02 -0.12230E-02  0.33661E-02  0.90179E-02  0.13353E-01
  0.15191E-01  0.15057E-01  0.14158E-01  0.13312E-01  0.12775E-01  0.12593E-01
  0.12775E-01  0.13312E-01  0.14158E-01  0.15057E-01  0.15191E-01  0.13353E-01
  0.90179E-02  0.33661E-02 -0.12230E-02 -0.31117E-02 -0.27826E-02 -0.21204E-02
 -0.24862E-02 -0.37556E-02 -0.50598E-02 -0.59278E-02 -0.64960E-02 -0.69689E-02
 -0.72662E-02 -0.71328E-02 -0.63690E-02 -0.50153E-02 -0.34849E-02 -0.23641E-02
  0.26015E-02  0.10272E-02 -0.62843E-03 -0.14842E-02 -0.18157E-02 -0.24192E-02
 -0.35343E-02 -0.47172E-02 -0.54907E-02 -0.57314E-02 -0.55122E-02 -0.49113E-02
 -0.40235E-02 -0.29295E-02 -0.15834E-02  0.11256E-03  0.20957E-02  0.41959E-02
  0.64622E-02  0.92050E-02  0.12501E-01  0.15761E-01  0.18015E-01  0.18676E-01
  0.17909E-01  0.16308E-01  0.14444E-01  0.12775E-01  0.11765E-01  0.11765E-01
  0.12775E-01  0.14444E-01  0.16308E-01  0.17909E-01  0.18676E-01  0.18015E-01
  0.15761E-01  0.12501E-01  0.92050E-02  0.64622E-02  0.41959E-02  0.20957E-02
  0.11256E-03 -0.15834E-02 -0.29295E-02 -0.40235E-02 -0.49113E-02 -0.55122E-02
 -0.57314E-02 -0.54907E-02 -0.47172E-02 -0.35343E-02 -0.24192E-02 -0.18158E-02
  0.14824E-02 -0.24969E-03 -0.14512E-02 -0.18325E-02 -0.21076E-02 -0.28564E-02
 -0.38461E-02 -0.45281E-02 -0.47397E-02 -0.46647E-02 -0.43707E-02 -0.36945E-02
 -0.25052E-02 -0.83748E-03  0.12627E-02  0.38796E-02  0.71544E-02  0.11098E-01
  0.15433E-01  0.19544E-01  0.22631E-01  0.24095E-01  0.23872E-01  0.22380E-01
  0.20125E-01  0.17456E-01  0.14736E-01  0.12593E-01  0.11765E-01  0.12593E-01
  0.14736E-01  0.17456E-01  0.20125E-01  0.22380E-01  0.23872E-01  0.24095E-01
  0.22631E-01  0.19544E-01  0.15433E-01  0.11097E-01  0.71544E-02  0.38796E-02
  0.12627E-02 -0.83748E-03 -0.25052E-02 -0.36945E-02 -0.43707E-02 -0.46647E-02
 -0.47397E-02 -0.45281E-02 -0.38461E-02 -0.28564E-02 -0.21076E-02 -0.18325E-02
 -0.18438E-03 -0.15377E-02 -0.20168E-02 -0.20537E-02 -0.24911E-02 -0.34130E-02
 -0.41819E-02 -0.43849E-02 -0.42621E-02 -0.41702E-02 -0.39822E-02 -0.31939E-02
 -0.14572E-02  0.11703E-02  0.44633E-02  0.83795E-02  0.13086E-01  0.18572E-01
  0.24206E-01  0.28753E-01  0.31041E-01  0.30731E-01  0.28456E-01  0.25193E-01
  0.21586E-01  0.17945E-01  0.14736E-01  0.12775E-01  0.12775E-01  0.14736E-01
  0.17945E-01  0.21586E-01  0.25193E-01  0.28456E-01  0.30731E-01  0.31041E-01
  0.28753E-01  0.24206E-01  0.18572E-01  0.13086E-01  0.83795E-02  0.44633E-02
  0.11703E-02 -0.14572E-02 -0.31939E-02 -0.39822E-02 -0.41702E-02 -0.42621E-02
 -0.43849E-02 -0.41819E-02 -0.34130E-02 -0.24911E-02 -0.20537E-02 -0.20168E-02
 -0.16611E-02 -0.21528E-02 -0.19224E-02 -0.19149E-02 -0.27009E-02 -0.37856E-02
 -0.43614E-02 -0.43124E-02 -0.41639E-02 -0.42219E-02 -0.40708E-02 -0.29471E-02
 -0.45159E-03  0.31846E-02  0.75010E-02  0.12400E-01  0.18205E-01  0.24954E-01
  0.31642E-01  0.36397E-01  0.37708E-01  0.35547E-01  0.31238E-01  0.26302E-01
  0.21586E-01  0.17456E-01  0.14444E-01  0.13312E-01  0.14444E-01  0.17456E-01
  0.21586E-01  0.26302E-01  0.31238E-01  0.35547E-01  0.37708E-01  0.36397E-01
  0.31642E-01  0.24954E-01  0.18205E-01  0.12400E-01  0.75010E-02  0.31846E-02
 -0.45159E-03 -0.29471E-02 -0.40708E-02 -0.42219E-02 -0.41639E-02 -0.43124E-02
 -0.43614E-02 -0.37856E-02 -0.27009E-02 -0.19149E-02 -0.19224E-02 -0.21528E-02
 -0.20591E-02 -0.17194E-02 -0.11942E-02 -0.15006E-02 -0.27181E-02 -0.39688E-02
 -0.45181E-02 -0.44988E-02 -0.44955E-02 -0.46626E-02 -0.44085E-02 -0.29158E-02
  0.85343E-04  0.41227E-02  0.86481E-02  0.13854E-01  0.20507E-01  0.28644E-01
  0.36538E-01  0.41410E-01  0.41486E-01  0.37352E-01  0.31238E-01  0.25193E-01
  0.20125E-01  0.16308E-01  0.14158E-01  0.14158E-01  0.16308E-01  0.20125E-01
  0.25193E-01  0.31238E-01  0.37352E-01  0.41486E-01  0.41410E-01  0.36538E-01
  0.28644E-01  0.20507E-01  0.13854E-01  0.86480E-02  0.41227E-02  0.85342E-04
 -0.29158E-02 -0.44085E-02 -0.46626E-02 -0.44955E-02 -0.44988E-02 -0.45181E-02
 -0.39688E-02 -0.27181E-02 -0.15006E-02 -0.11942E-02 -0.17194E-02 -0.20591E-02
 -0.13469E-02 -0.70687E-03 -0.39298E-03 -0.11901E-02 -0.28050E-02 -0.42685E-02
 -0.49745E-02 -0.51273E-02 -0.52628E-02 -0.54697E-02 -0.51364E-02 -0.35257E-02
 -0.59468E-03  0.29979E-02  0.69530E-02  0.12179E-01  0.19939E-01  0.29789E-01
  0.38747E-01  0.43131E-01  0.41486E-01  0.35547E-01  0.28456E-01  0.22380E-01
  0.17909E-01  0.15057E-01  0.14045E-01  0.15057E-01  0.17909E-01  0.22380E-01
  0.28456E-01  0.35547E-01  0.41486E-01  0.43131E-01  0.38747E-01  0.29789E-01
  0.19939E-01  0.12179E-01  0.69530E-02  0.29979E-02 -0.59469E-03 -0.35257E-02
 -0.51364E-02 -0.54697E-02 -0.52628E-02 -0.51273E-02 -0.49745E-02 -0.42685E-02
 -0.28050E-02 -0.11901E-02 -0.39297E-03 -0.70687E-03 -0.13469E-02 -0.13686E-02
 -0.35891E-03  0.72977E-04 -0.34689E-04 -0.12691E-02 -0.32270E-02 -0.49702E-02
 -0.59160E-02 -0.62540E-02 -0.65268E-02 -0.68180E-02 -0.64990E-02 -0.49732E-02
 -0.25080E-02  0.20869E-03  0.35319E-02  0.92411E-02  0.18589E-01  0.29882E-01
  0.38747E-01  0.41410E-01  0.37708E-01  0.30731E-01  0.23872E-01  0.18676E-01
  0.15191E-01  0.13347E-01  0.13347E-01  0.15191E-01  0.18676E-01  0.23872E-01
  0.30731E-01  0.37708E-01  0.41410E-01  0.38747E-01  0.29882E-01  0.18589E-01
  0.92411E-02  0.35319E-02  0.20868E-03 -0.25080E-02 -0.49732E-02 -0.64990E-02
 -0.68180E-02 -0.65268E-02 -0.62540E-02 -0.59160E-02 -0.49702E-02 -0.32270E-02
 -0.12691E-02 -0.34683E-04  0.72985E-04 -0.35890E-03 -0.38482E-03  0.13436E-03
  0.21179E-03  0.35013E-03 -0.94563E-04 -0.16903E-02 -0.40235E-02 -0.61097E-02
 -0.73294E-02 -0.79167E-02 -0.84279E-02 -0.88112E-02 -0.83725E-02 -0.68081E-02
 -0.47465E-02 -0.26098E-02  0.85049E-03  0.78274E-02  0.18589E-01  0.29789E-01
  0.36538E-01  0.36397E-01  0.31041E-01  0.24095E-01  0.18015E-01  0.13353E-01
  0.10172E-01  0.89878E-02  0.10172E-01  0.13353E-01  0.18015E-01  0.24095E-01
  0.31041E-01  0.36397E-01  0.36538E-01  0.29789E-01  0.18589E-01  0.78274E-02
  0.85048E-03 -0.26098E-02 -0.47465E-02 -0.68081E-02 -0.83725E-02 -0.88112E-02
 -0.84279E-02 -0.79167E-02 -0.73294E-02 -0.61097E-02 -0.40235E-02 -0.16903E-02
 -0.94559E-04  0.35013E-03  0.21180E-03  0.45291E-03  0.13224E-02  0.19232E-02
  0.51110E-03  0.53027E-03 -0.20368E-03 -0.22602E-02 -0.50977E-02 -0.76061E-02
 -0.91980E-02 -0.10178E-01 -0.10938E-01 -0.11146E-01 -0.10192E-01 -0.82700E-02
 -0.61940E-02 -0.37760E-02  0.85049E-03  0.92411E-02  0.19939E-01  0.28644E-01
  0.31642E-01  0.28753E-01  0.22631E-01  0.15761E-01  0.90179E-02  0.29363E-02
 -0.94176E-03 -0.94176E-03  0.29363E-02  0.90179E-02  0.15761E-01  0.22631E-01
  0.28753E-01  0.31642E-01  0.28644E-01  0.19939E-01  0.92411E-02  0.85048E-03
 -0.37760E-02 -0.61940E-02 -0.82700E-02 -0.10192E-01 -0.11146E-01 -0.10938E-01
 -0.10178E-01 -0.91980E-02 -0.76061E-02 -0.50977E-02 -0.22602E-02 -0.20368E-03
  0.53027E-03  0.51111E-03  0.82815E-03  0.19307E-02  0.30401E-02  0.28577E-02
  0.10854E-02  0.10062E-02 -0.20627E-03 -0.29519E-02 -0.64245E-02 -0.94315E-02
 -0.11485E-01 -0.12831E-01 -0.13527E-01 -0.13088E-01 -0.11301E-01 -0.88141E-02
 -0.61940E-02 -0.26098E-02  0.35319E-02  0.12179E-01  0.20507E-01  0.24954E-01
  0.24206E-01  0.19544E-01  0.12501E-01  0.33661E-02 -0.73308E-02 -0.16728E-01
 -0.20559E-01 -0.16728E-01 -0.73308E-02  0.33662E-02  0.12501E-01  0.19544E-01
  0.24206E-01  0.24954E-01  0.20507E-01  0.12179E-01  0.35319E-02 -0.26098E-02
 -0.61940E-02 -0.88141E-02 -0.11301E-01 -0.13088E-01 -0.13527E-01 -0.12831E-01
 -0.11485E-01 -0.94315E-02 -0.64245E-02 -0.29519E-02 -0.20627E-03  0.10062E-02
  0.10854E-02  0.12059E-02  0.21024E-02  0.33043E-02  0.35803E-02  0.22163E-02
  0.20356E-02  0.16248E-02 -0.33323E-03 -0.39017E-02 -0.80038E-02 -0.11451E-01
 -0.13807E-01 -0.15120E-01 -0.15222E-01 -0.13848E-01 -0.11301E-01 -0.82700E-02
 -0.47465E-02  0.20868E-03  0.69530E-02  0.13854E-01  0.18205E-01  0.18572E-01
  0.15433E-01  0.92050E-02 -0.12230E-02 -0.16555E-01 -0.33608E-01 -0.45240E-01
 -0.45240E-01 -0.33608E-01 -0.16555E-01 -0.12230E-02  0.92050E-02  0.15433E-01
  0.18572E-01  0.18205E-01  0.13854E-01  0.69530E-02  0.20868E-03 -0.47465E-02
 -0.82700E-02 -0.11301E-01 -0.13848E-01 -0.15222E-01 -0.15120E-01 -0.13807E-01
 -0.11451E-01 -0.80038E-02 -0.39017E-02 -0.33323E-03  0.16248E-02  0.20356E-02
  0.19869E-02  0.24328E-02  0.32670E-02  0.35398E-02  0.25170E-02  0.50350E-03
  0.28931E-02  0.19315E-02 -0.83423E-03 -0.50968E-02 -0.95902E-02 -0.13158E-01
 -0.15338E-01 -0.16042E-01 -0.15222E-01 -0.13088E-01 -0.10192E-01 -0.68081E-02
 -0.25080E-02  0.29979E-02  0.86480E-02  0.12400E-01  0.13086E-01  0.11097E-01
  0.64622E-02 -0.31117E-02 -0.20443E-01 -0.43994E-01 -0.65493E-01 -0.74297E-01
 -0.65493E-01 -0.43994E-01 -0.20443E-01 -0.31117E-02  0.64622E-02  0.11097E-01
  0.13086E-01  0.12400E-01  0.86481E-02  0.29979E-02 -0.25080E-02 -0.68081E-02
 -0.10192E-01 -0.13088E-01 -0.15222E-01 -0.16042E-01 -0.15338E-01 -0.13158E-01
 -0.95902E-02 -0.50968E-02 -0.83424E-03  0.19315E-02  0.28931E-02  0.29190E-02
  0.30592E-02  0.34815E-02  0.34955E-02  0.24942E-02  0.70476E-03 -0.10141E-02
  0.32225E-02  0.17460E-02 -0.15909E-02 -0.61725E-02 -0.10631E-01 -0.13842E-01
 -0.15338E-01 -0.15120E-01 -0.13527E-01 -0.11146E-01 -0.83725E-02 -0.49732E-02
 -0.59469E-03  0.41227E-02  0.75010E-02  0.83795E-02  0.71543E-02  0.41959E-02
 -0.27826E-02 -0.18167E-01 -0.43380E-01 -0.72023E-01 -0.91507E-01 -0.91507E-01
 -0.72023E-01 -0.43380E-01 -0.18167E-01 -0.27826E-02  0.41959E-02  0.71544E-02
  0.83795E-02  0.75010E-02  0.41227E-02 -0.59468E-03 -0.49732E-02 -0.83725E-02
 -0.11146E-01 -0.13527E-01 -0.15120E-01 -0.15338E-01 -0.13842E-01 -0.10631E-01
 -0.61725E-02 -0.15909E-02  0.17460E-02  0.32225E-02  0.34562E-02  0.35349E-02
  0.38314E-02  0.37814E-02  0.27855E-02  0.10517E-02 -0.58441E-03 -0.15585E-02
  0.30748E-02  0.13422E-02 -0.21614E-02 -0.66122E-02 -0.10631E-01 -0.13158E-01