<UPF version="2.0.1">
  <PP_INFO>

 This pseudopotential file has been produced using the code
 ONCVPSP  (Optimized Norm-Conservinng Vanderbilt PSeudopotential)
 scalar-relativistic version 4.0.1 06/20/2107 by D. R. Hamann
 The code is available through a link at URL www.mat-simresearch.com.
 Documentation with the package provides a full discription of the
 input data below.


 While it is not required under the terms of the GNU GPL, it is
 suggested that you cite D. R. Hamann, Phys. Rev. B 88, 085117 (2013)
 in any publication using these pseudopotentials.

    <PP_INPUTFILE>
# ATOM AND REFERENCE CONFIGURATION
# atsym  z   nc   nv     iexc    psfile
  O  8.00    1    2       4      upf
#
#   n    l    f        energy (Ha)
    1    0    2.00
    2    0    2.00
    2    1    4.00
#
# PSEUDOPOTENTIAL AND OPTIMIZATION
# lmax
    1
#
#   l,   rc,      ep,       ncon, nbas, qcut
    0   1.29195  -0.88057    5    8   8.98916
    1   1.47310  -0.33187    5    8   9.14990
#
# LOCAL POTENTIAL
# lloc, lpopt,  rc(5),   dvloc0
    4    5   0.90330      0.00000
#
# VANDERBILT-KLEINMAN-BYLANDER PROJECTORs
# l, nproj, debl
    0    2   1.51851
    1    2   1.53631
#
# MODEL CORE CHARGE
# icmod, fcfact, rcfact
    0   0.00000   0.00000
#
# LOG DERIVATIVE ANALYSIS
# epsh1, epsh2, depsh
   -5.00    3.00    0.02
#
# OUTPUT GRID
# rlmax, drl
    6.00    0.01
#
# TEST CONFIGURATIONS
# ncnf
    0
# nvcnf
#   n    l    f
    </PP_INPUTFILE>
  </PP_INFO>
  <!--                               -->
  <!-- END OF HUMAN READABLE SECTION -->
  <!--                               -->
    <PP_HEADER
       generated="Generated using ONCVPSP code by D. R. Hamann"
       author="anonymous"
       date="220620"
       comment=""
       element="O "
       pseudo_type="NC"
       relativistic="scalar"
       is_ultrasoft="F"
       is_paw="F"
       is_coulomb="F"
       has_so="F"
       has_wfc="F"
       has_gipaw="F"
       core_correction="F"
       functional="PBE"
       z_valence="    6.00"
       total_psenergy="  -3.14326247105E+01"
       rho_cutoff="   9.33000000000E+00"
       l_max="1"
       l_local="-1"
       mesh_size="   934"
       number_of_wfc="2"
       number_of_proj="4"/>
 <PP_MESH>
   <PP_R type="real"  size=" 934" columns="8">
    0.0000    0.0100    0.0200    0.0300    0.0400    0.0500    0.0600    0.0700
    0.0800    0.0900    0.1000    0.1100    0.1200    0.1300    0.1400    0.1500
    0.1600    0.1700    0.1800    0.1900    0.2000    0.2100    0.2200    0.2300
    0.2400    0.2500    0.2600    0.2700    0.2800    0.2900    0.3000    0.3100
    0.3200    0.3300    0.3400    0.3500    0.3600    0.3700    0.3800    0.3900
    0.4000    0.4100    0.4200    0.4300    0.4400    0.4500    0.4600    0.4700
    0.4800    0.4900    0.5000    0.5100    0.5200    0.5300    0.5400    0.5500
    0.5600    0.5700    0.5800    0.5900    0.6000    0.6100    0.6200    0.6300
    0.6400    0.6500    0.6600    0.6700    0.6800    0.6900    0.7000    0.7100
    0.7200    0.7300    0.7400    0.7500    0.7600    0.7700    0.7800    0.7900
    0.8000    0.8100    0.8200    0.8300    0.8400    0.8500    0.8600    0.8700
    0.8800    0.8900    0.9000    0.9100    0.9200    0.9300    0.9400    0.9500
    0.9600    0.9700    0.9800    0.9900    1.0000    1.0100    1.0200    1.0300
    1.0400    1.0500    1.0600    1.0700    1.0800    1.0900    1.1000    1.1100
    1.1200    1.1300    1.1400    1.1500    1.1600    1.1700    1.1800    1.1900
    1.2000    1.2100    1.2200    1.2300    1.2400    1.2500    1.2600    1.2700
    1.2800    1.2900    1.3000    1.3100    1.3200    1.3300    1.3400    1.3500
    1.3600    1.3700    1.3800    1.3900    1.4000    1.4100    1.4200    1.4300
    1.4400    1.4500    1.4600    1.4700    1.4800    1.4900    1.5000    1.5100
    1.5200    1.5300    1.5400    1.5500    1.5600    1.5700    1.5800    1.5900
    1.6000    1.6100    1.6200    1.6300    1.6400    1.6500    1.6600    1.6700
    1.6800    1.6900    1.7000    1.7100    1.7200    1.7300    1.7400    1.7500
    1.7600    1.7700    1.7800    1.7900    1.8000    1.8100    1.8200    1.8300
    1.8400    1.8500    1.8600    1.8700    1.8800    1.8900    1.9000    1.9100
    1.9200    1.9300    1.9400    1.9500    1.9600    1.9700    1.9800    1.9900
    2.0000    2.0100    2.0200    2.0300    2.0400    2.0500    2.0600    2.0700
    2.0800    2.0900    2.1000    2.1100    2.1200    2.1300    2.1400    2.1500
    2.1600    2.1700    2.1800    2.1900    2.2000    2.2100    2.2200    2.2300
    2.2400    2.2500    2.2600    2.2700    2.2800    2.2900    2.3000    2.3100
    2.3200    2.3300    2.3400    2.3500    2.3600    2.3700    2.3800    2.3900
    2.4000    2.4100    2.4200    2.4300    2.4400    2.4500    2.4600    2.4700
    2.4800    2.4900    2.5000    2.5100    2.5200    2.5300    2.5400    2.5500
    2.5600    2.5700    2.5800    2.5900    2.6000    2.6100    2.6200    2.6300
    2.6400    2.6500    2.6600    2.6700    2.6800    2.6900    2.7000    2.7100
    2.7200    2.7300    2.7400    2.7500    2.7600    2.7700    2.7800    2.7900
    2.8000    2.8100    2.8200    2.8300    2.8400    2.8500    2.8600    2.8700
    2.8800    2.8900    2.9000    2.9100    2.9200    2.9300    2.9400    2.9500
    2.9600    2.9700    2.9800    2.9900    3.0000    3.0100    3.0200    3.0300
    3.0400    3.0500    3.0600    3.0700    3.0800    3.0900    3.1000    3.1100
    3.1200    3.1300    3.1400    3.1500    3.1600    3.1700    3.1800    3.1900
    3.2000    3.2100    3.2200    3.2300    3.2400    3.2500    3.2600    3.2700
    3.2800    3.2900    3.3000    3.3100    3.3200    3.3300    3.3400    3.3500
    3.3600    3.3700    3.3800    3.3900    3.4000    3.4100    3.4200    3.4300
    3.4400    3.4500    3.4600    3.4700    3.4800    3.4900    3.5000    3.5100
    3.5200    3.5300    3.5400    3.5500    3.5600    3.5700    3.5800    3.5900
    3.6000    3.6100    3.6200    3.6300    3.6400    3.6500    3.6600    3.6700
    3.6800    3.6900    3.7000    3.7100    3.7200    3.7300    3.7400    3.7500
    3.7600    3.7700    3.7800    3.7900    3.8000    3.8100    3.8200    3.8300
    3.8400    3.8500    3.8600    3.8700    3.8800    3.8900    3.9000    3.9100
    3.9200    3.9300    3.9400    3.9500    3.9600    3.9700    3.9800    3.9900
    4.0000    4.0100    4.0200    4.0300    4.0400    4.0500    4.0600    4.0700
    4.0800    4.0900    4.1000    4.1100    4.1200    4.1300    4.1400    4.1500
    4.1600    4.1700    4.1800    4.1900    4.2000    4.2100    4.2200    4.2300
    4.2400    4.2500    4.2600    4.2700    4.2800    4.2900    4.3000    4.3100
    4.3200    4.3300    4.3400    4.3500    4.3600    4.3700    4.3800    4.3900
    4.4000    4.4100    4.4200    4.4300    4.4400    4.4500    4.4600    4.4700
    4.4800    4.4900    4.5000    4.5100    4.5200    4.5300    4.5400    4.5500
    4.5600    4.5700    4.5800    4.5900    4.6000    4.6100    4.6200    4.6300
    4.6400    4.6500    4.6600    4.6700    4.6800    4.6900    4.7000    4.7100
    4.7200    4.7300    4.7400    4.7500    4.7600    4.7700    4.7800    4.7900
    4.8000    4.8100    4.8200    4.8300    4.8400    4.8500    4.8600    4.8700
    4.8800    4.8900    4.9000    4.9100    4.9200    4.9300    4.9400    4.9500
    4.9600    4.9700    4.9800    4.9900    5.0000    5.0100    5.0200    5.0300
    5.0400    5.0500    5.0600    5.0700    5.0800    5.0900    5.1000    5.1100
    5.1200    5.1300    5.1400    5.1500    5.1600    5.1700    5.1800    5.1900
    5.2000    5.2100    5.2200    5.2300    5.2400    5.2500    5.2600    5.2700
    5.2800    5.2900    5.3000    5.3100    5.3200    5.3300    5.3400    5.3500
    5.3600    5.3700    5.3800    5.3900    5.4000    5.4100    5.4200    5.4300
    5.4400    5.4500    5.4600    5.4700    5.4800    5.4900    5.5000    5.5100
    5.5200    5.5300    5.5400    5.5500    5.5600    5.5700    5.5800    5.5900
    5.6000    5.6100    5.6200    5.6300    5.6400    5.6500    5.6600    5.6700
    5.6800    5.6900    5.7000    5.7100    5.7200    5.7300    5.7400    5.7500
    5.7600    5.7700    5.7800    5.7900    5.8000    5.8100    5.8200    5.8300
    5.8400    5.8500    5.8600    5.8700    5.8800    5.8900    5.9000    5.9100
    5.9200    5.9300    5.9400    5.9500    5.9600    5.9700    5.9800    5.9900
    6.0000    6.0100    6.0200    6.0300    6.0400    6.0500    6.0600    6.0700
    6.0800    6.0900    6.1000    6.1100    6.1200    6.1300    6.1400    6.1500
    6.1600    6.1700    6.1800    6.1900    6.2000    6.2100    6.2200    6.2300
    6.2400    6.2500    6.2600    6.2700    6.2800    6.2900    6.3000    6.3100
    6.3200    6.3300    6.3400    6.3500    6.3600    6.3700    6.3800    6.3900
    6.4000    6.4100    6.4200    6.4300    6.4400    6.4500    6.4600    6.4700
    6.4800    6.4900    6.5000    6.5100    6.5200    6.5300    6.5400    6.5500
    6.5600    6.5700    6.5800    6.5900    6.6000    6.6100    6.6200    6.6300
    6.6400    6.6500    6.6600    6.6700    6.6800    6.6900    6.7000    6.7100
    6.7200    6.7300    6.7400    6.7500    6.7600    6.7700    6.7800    6.7900
    6.8000    6.8100    6.8200    6.8300    6.8400    6.8500    6.8600    6.8700
    6.8800    6.8900    6.9000    6.9100    6.9200    6.9300    6.9400    6.9500
    6.9600    6.9700    6.9800    6.9900    7.0000    7.0100    7.0200    7.0300
    7.0400    7.0500    7.0600    7.0700    7.0800    7.0900    7.1000    7.1100
    7.1200    7.1300    7.1400    7.1500    7.1600    7.1700    7.1800    7.1900
    7.2000    7.2100    7.2200    7.2300    7.2400    7.2500    7.2600    7.2700
    7.2800    7.2900    7.3000    7.3100    7.3200    7.3300    7.3400    7.3500
    7.3600    7.3700    7.3800    7.3900    7.4000    7.4100    7.4200    7.4300
    7.4400    7.4500    7.4600    7.4700    7.4800    7.4900    7.5000    7.5100
    7.5200    7.5300    7.5400    7.5500    7.5600    7.5700    7.5800    7.5900
    7.6000    7.6100    7.6200    7.6300    7.6400    7.6500    7.6600    7.6700
    7.6800    7.6900    7.7000    7.7100    7.7200    7.7300    7.7400    7.7500
    7.7600    7.7700    7.7800    7.7900    7.8000    7.8100    7.8200    7.8300
    7.8400    7.8500    7.8600    7.8700    7.8800    7.8900    7.9000    7.9100
    7.9200    7.9300    7.9400    7.9500    7.9600    7.9700    7.9800    7.9900
    8.0000    8.0100    8.0200    8.0300    8.0400    8.0500    8.0600    8.0700
    8.0800    8.0900    8.1000    8.1100    8.1200    8.1300    8.1400    8.1500
    8.1600    8.1700    8.1800    8.1900    8.2000    8.2100    8.2200    8.2300
    8.2400    8.2500    8.2600    8.2700    8.2800    8.2900    8.3000    8.3100
    8.3200    8.3300    8.3400    8.3500    8.3600    8.3700    8.3800    8.3900
    8.4000    8.4100    8.4200    8.4300    8.4400    8.4500    8.4600    8.4700
    8.4800    8.4900    8.5000    8.5100    8.5200    8.5300    8.5400    8.5500
    8.5600    8.5700    8.5800    8.5900    8.6000    8.6100    8.6200    8.6300
    8.6400    8.6500    8.6600    8.6700    8.6800    8.6900    8.7000    8.7100
    8.7200    8.7300    8.7400    8.7500    8.7600    8.7700    8.7800    8.7900
    8.8000    8.8100    8.8200    8.8300    8.8400    8.8500    8.8600    8.8700
    8.8800    8.8900    8.9000    8.9100    8.9200    8.9300    8.9400    8.9500
    8.9600    8.9700    8.9800    8.9900    9.0000    9.0100    9.0200    9.0300
    9.0400    9.0500    9.0600    9.0700    9.0800    9.0900    9.1000    9.1100
    9.1200    9.1300    9.1400    9.1500    9.1600    9.1700    9.1800    9.1900
    9.2000    9.2100    9.2200    9.2300    9.2400    9.2500    9.2600    9.2700
    9.2800    9.2900    9.3000    9.3100    9.3200    9.3300
   </PP_R>
   <PP_RAB type="real"  size=" 934" columns="8">
    0.0100    0.0100    0.0100    0.0100    0.0100    0.0100    0.0100    0.0100
    0.0100    0.0100    0.0100    0.0100    0.0100    0.0100    0.0100    0.0100
    0.0100    0.0100    0.0100    0.0100    0.0100    0.0100    0.0100    0.0100
    0.0100    0.0100    0.0100    0.0100    0.0100    0.0100    0.0100    0.0100
    0.0100    0.0100    0.0100    0.0100    0.0100    0.0100    0.0100    0.0100
    0.0100    0.0100    0.0100    0.0100    0.0100    0.0100    0.0100    0.0100
    0.0100    0.0100    0.0100    0.0100    0.0100    0.0100    0.0100    0.0100
    0.0100    0.0100    0.0100    0.0100    0.0100    0.0100    0.0100    0.0100
    0.0100    0.0100    0.0100    0.0100    0.0100    0.0100    0.0100    0.0100
    0.0100    0.0100    0.0100    0.0100    0.0100    0.0100    0.0100    0.0100
    0.0100    0.0100    0.0100    0.0100    0.0100    0.0100    0.0100    0.0100
    0.0100    0.0100    0.0100    0.0100    0.0100    0.0100    0.0100    0.0100
    0.0100    0.0100    0.0100    0.0100    0.0100    0.0100    0.0100    0.0100
    0.0100    0.0100    0.0100    0.0100    0.0100    0.0100    0.0100    0.0100
    0.0100    0.0100    0.0100    0.0100    0.0100    0.0100    0.0100    0.0100
    0.0100    0.0100    0.0100    0.0100    0.0100    0.0100    0.0100    0.0100
    0.0100    0.0100    0.0100    0.0100    0.0100    0.0100    0.0100    0.0100
    0.0100    0.0100    0.0100    0.0100    0.0100    0.0100    0.0100    0.0100
    0.0100    0.0100    0.0100    0.0100    0.0100    0.0100    0.0100    0.0100
    0.0100    0.0100    0.0100    0.0100    0.0100    0.0100    0.0100    0.0100
    0.0100    0.0100    0.0100    0.0100    0.0100    0.0100    0.0100    0.0100
    0.0100    0.0100    0.0100    0.0100    0.0100    0.0100    0.0100    0.0100
    0.0100    0.0100    0.0100    0.0100    0.0100    0.0100    0.0100    0.0100
    0.0100    0.0100    0.0100    0.0100    0.0100    0.0100    0.0100    0.0100
    0.0100    0.0100    0.0100    0.0100    0.0100    0.0100    0.0100    0.0100
    0.0100    0.0100    0.0100    0.0100    0.0100    0.0100    0.0100    0.0100
    0.0100    0.0100    0.0100    0.0100    0.0100    0.0100    0.0100    0.0100
    0.0100    0.0100    0.0100    0.0100    0.0100    0.0100    0.0100    0.0100
    0.0100    0.0100    0.0100    0.0100    0.0100    0.0100    0.0100    0.0100
    0.0100    0.0100    0.0100    0.0100    0.0100    0.0100    0.0100    0.0100
    0.0100    0.0100    0.0100    0.0100    0.0100    0.0100    0.0100    0.0100
    0.0100    0.0100    0.0100    0.0100    0.0100    0.0100    0.0100    0.0100
    0.0100    0.0100    0.0100    0.0100    0.0100    0.0100    0.0100    0.0100
    0.0100    0.0100    0.0100    0.0100    0.0100    0.0100    0.0100    0.0100
    0.0100    0.0100    0.0100    0.0100    0.0100    0.0100    0.0100    0.0100
    0.0100    0.0100    0.0100    0.0100    0.0100    0.0100    0.0100    0.0100
    0.0100    0.0100    0.0100    0.0100    0.0100    0.0100    0.0100    0.0100
    0.0100    0.0100    0.0100    0.0100    0.0100    0.0100    0.0100    0.0100
    0.0100    0.0100    0.0100    0.0100    0.0100    0.0100    0.0100    0.0100
    0.0100    0.0100    0.0100    0.0100    0.0100    0.0100    0.0100    0.0100
    0.0100    0.0100    0.0100    0.0100    0.0100    0.0100    0.0100    0.0100
    0.0100    0.0100    0.0100    0.0100    0.0100    0.0100    0.0100    0.0100
    0.0100    0.0100    0.0100    0.0100    0.0100    0.0100    0.0100    0.0100
    0.0100    0.0100    0.0100    0.0100    0.0100    0.0100    0.0100    0.0100
    0.0100    0.0100    0.0100    0.0100    0.0100    0.0100    0.0100    0.0100
    0.0100    0.0100    0.0100    0.0100    0.0100    0.0100    0.0100    0.0100
    0.0100    0.0100    0.0100    0.0100    0.0100    0.0100    0.0100    0.0100
    0.0100    0.0100    0.0100    0.0100    0.0100    0.0100    0.0100    0.0100
    0.0100    0.0100    0.0100    0.0100    0.0100    0.0100    0.0100    0.0100
    0.0100    0.0100    0.0100    0.0100    0.0100    0.0100    0.0100    0.0100
    0.0100    0.0100    0.0100    0.0100    0.0100    0.0100    0.0100    0.0100
    0.0100    0.0100    0.0100    0.0100    0.0100    0.0100    0.0100    0.0100
    0.0100    0.0100    0.0100    0.0100    0.0100    0.0100    0.0100    0.0100
    0.0100    0.0100    0.0100    0.0100    0.0100    0.0100    0.0100    0.0100
    0.0100    0.0100    0.0100    0.0100    0.0100    0.0100    0.0100    0.0100
    0.0100    0.0100    0.0100    0.0100    0.0100    0.0100    0.0100    0.0100
    0.0100    0.0100    0.0100    0.0100    0.0100    0.0100    0.0100    0.0100
    0.0100    0.0100    0.0100    0.0100    0.0100    0.0100    0.0100    0.0100
    0.0100    0.0100    0.0100    0.0100    0.0100    0.0100    0.0100    0.0100
    0.0100    0.0100    0.0100    0.0100    0.0100    0.0100    0.0100    0.0100
    0.0100    0.0100    0.0100    0.0100    0.0100    0.0100    0.0100    0.0100
    0.0100    0.0100    0.0100    0.0100    0.0100    0.0100    0.0100    0.0100
    0.0100    0.0100    0.0100    0.0100    0.0100    0.0100    0.0100    0.0100
    0.0100    0.0100    0.0100    0.0100    0.0100    0.0100    0.0100    0.0100
    0.0100    0.0100    0.0100    0.0100    0.0100    0.0100    0.0100    0.0100
    0.0100    0.0100    0.0100    0.0100    0.0100    0.0100    0.0100    0.0100
    0.0100    0.0100    0.0100    0.0100    0.0100    0.0100    0.0100    0.0100
    0.0100    0.0100    0.0100    0.0100    0.0100    0.0100    0.0100    0.0100
    0.0100    0.0100    0.0100    0.0100    0.0100    0.0100    0.0100    0.0100
    0.0100    0.0100    0.0100    0.0100    0.0100    0.0100    0.0100    0.0100
    0.0100    0.0100    0.0100    0.0100    0.0100    0.0100    0.0100    0.0100
    0.0100    0.0100    0.0100    0.0100    0.0100    0.0100    0.0100    0.0100
    0.0100    0.0100    0.0100    0.0100    0.0100    0.0100    0.0100    0.0100
    0.0100    0.0100    0.0100    0.0100    0.0100    0.0100    0.0100    0.0100
    0.0100    0.0100    0.0100    0.0100    0.0100    0.0100    0.0100    0.0100
    0.0100    0.0100    0.0100    0.0100    0.0100    0.0100    0.0100    0.0100
    0.0100    0.0100    0.0100    0.0100    0.0100    0.0100    0.0100    0.0100
    0.0100    0.0100    0.0100    0.0100    0.0100    0.0100    0.0100    0.0100
    0.0100    0.0100    0.0100    0.0100    0.0100    0.0100    0.0100    0.0100
    0.0100    0.0100    0.0100    0.0100    0.0100    0.0100    0.0100    0.0100
    0.0100    0.0100    0.0100    0.0100    0.0100    0.0100    0.0100    0.0100
    0.0100    0.0100    0.0100    0.0100    0.0100    0.0100    0.0100    0.0100
    0.0100    0.0100    0.0100    0.0100    0.0100    0.0100    0.0100    0.0100
    0.0100    0.0100    0.0100    0.0100    0.0100    0.0100    0.0100    0.0100
    0.0100    0.0100    0.0100    0.0100    0.0100    0.0100    0.0100    0.0100
    0.0100    0.0100    0.0100    0.0100    0.0100    0.0100    0.0100    0.0100
    0.0100    0.0100    0.0100    0.0100    0.0100    0.0100    0.0100    0.0100
    0.0100    0.0100    0.0100    0.0100    0.0100    0.0100    0.0100    0.0100
    0.0100    0.0100    0.0100    0.0100    0.0100    0.0100    0.0100    0.0100
    0.0100    0.0100    0.0100    0.0100    0.0100    0.0100    0.0100    0.0100
    0.0100    0.0100    0.0100    0.0100    0.0100    0.0100    0.0100    0.0100
    0.0100    0.0100    0.0100    0.0100    0.0100    0.0100    0.0100    0.0100
    0.0100    0.0100    0.0100    0.0100    0.0100    0.0100    0.0100    0.0100
    0.0100    0.0100    0.0100    0.0100    0.0100    0.0100    0.0100    0.0100
    0.0100    0.0100    0.0100    0.0100    0.0100    0.0100    0.0100    0.0100
    0.0100    0.0100    0.0100    0.0100    0.0100    0.0100    0.0100    0.0100
    0.0100    0.0100    0.0100    0.0100    0.0100    0.0100    0.0100    0.0100
    0.0100    0.0100    0.0100    0.0100    0.0100    0.0100    0.0100    0.0100
    0.0100    0.0100    0.0100    0.0100    0.0100    0.0100    0.0100    0.0100
    0.0100    0.0100    0.0100    0.0100    0.0100    0.0100    0.0100    0.0100
    0.0100    0.0100    0.0100    0.0100    0.0100    0.0100    0.0100    0.0100
    0.0100    0.0100    0.0100    0.0100    0.0100    0.0100    0.0100    0.0100
    0.0100    0.0100    0.0100    0.0100    0.0100    0.0100    0.0100    0.0100
    0.0100    0.0100    0.0100    0.0100    0.0100    0.0100    0.0100    0.0100
    0.0100    0.0100    0.0100    0.0100    0.0100    0.0100    0.0100    0.0100
    0.0100    0.0100    0.0100    0.0100    0.0100    0.0100    0.0100    0.0100
    0.0100    0.0100    0.0100    0.0100    0.0100    0.0100    0.0100    0.0100
    0.0100    0.0100    0.0100    0.0100    0.0100    0.0100    0.0100    0.0100
    0.0100    0.0100    0.0100    0.0100    0.0100    0.0100    0.0100    0.0100
    0.0100    0.0100    0.0100    0.0100    0.0100    0.0100    0.0100    0.0100
    0.0100    0.0100    0.0100    0.0100    0.0100    0.0100    0.0100    0.0100
    0.0100    0.0100    0.0100    0.0100    0.0100    0.0100    0.0100    0.0100
    0.0100    0.0100    0.0100    0.0100    0.0100    0.0100    0.0100    0.0100
    0.0100    0.0100    0.0100    0.0100    0.0100    0.0100    0.0100    0.0100
    0.0100    0.0100    0.0100    0.0100    0.0100    0.0100    0.0100    0.0100
    0.0100    0.0100    0.0100    0.0100    0.0100    0.0100    0.0100    0.0100
    0.0100    0.0100    0.0100    0.0100    0.0100    0.0100
   </PP_RAB>
 </PP_MESH>
  <PP_LOCAL type="real"  size=" 934" columns="4">
   -2.9446511109E+01   -3.0641743445E+01   -3.2173373701E+01   -3.2601719070E+01
   -3.2328520938E+01   -3.1845508353E+01   -3.1382460650E+01   -3.1002706257E+01
   -3.0701893680E+01   -3.0458327624E+01   -3.0251112046E+01   -3.0064355288E+01
   -2.9886928784E+01   -2.9711338157E+01   -2.9532718641E+01   -2.9348113192E+01
   -2.9155972198E+01   -2.8955791030E+01   -2.8747826198E+01   -2.8532858374E+01
   -2.8311990131E+01   -2.8086477081E+01   -2.7857594808E+01   -2.7626543100E+01
   -2.7394385864E+01   -2.7162021837E+01   -2.6930178905E+01   -2.6699424154E+01
   -2.6470182304E+01   -2.6242756639E+01   -2.6017348274E+01   -2.5794071311E+01
   -2.5572962816E+01   -2.5353987691E+01   -2.5137039308E+01   -2.4921937399E+01
   -2.4708425082E+01   -2.4496167212E+01   -2.4284752184E+01   -2.4073699130E+01
   -2.3862471804E+01   -2.3650499560E+01   -2.3437204671E+01   -2.3222034011E+01
   -2.3004492116E+01   -2.2784172064E+01   -2.2560780615E+01   -2.2334154782E+01
   -2.2104268171E+01   -2.1871226934E+01   -2.1635256553E+01   -2.1396681760E+01
   -2.1155902442E+01   -2.0913368411E+01   -2.0669555490E+01   -2.0424944717E+01
   -2.0180005679E+01   -1.9935184310E+01   -1.9690894935E+01   -1.9447515995E+01
   -1.9205388706E+01   -1.8964817876E+01   -1.8726074147E+01   -1.8489397079E+01
   -1.8254998584E+01   -1.8023066378E+01   -1.7793767224E+01   -1.7567249829E+01
   -1.7343647330E+01   -1.7123079351E+01   -1.6905653654E+01   -1.6691467407E+01
   -1.6480608118E+01   -1.6273154292E+01   -1.6069175838E+01   -1.5868734292E+01
   -1.5671882869E+01   -1.5478666400E+01   -1.5289121167E+01   -1.5103274662E+01
   -1.4921145295E+01   -1.4742742049E+01   -1.4568064123E+01   -1.4397100532E+01
   -1.4229829712E+01   -1.4066219098E+01   -1.3906224709E+01   -1.3749790721E+01
   -1.3596849038E+01   -1.3447318860E+01   -1.3301106252E+01   -1.3158103730E+01
   -1.3018193055E+01   -1.2881256752E+01   -1.2747182715E+01   -1.2615864126E+01
   -1.2487199292E+01   -1.2361091506E+01   -1.2237448904E+01   -1.2116184333E+01
   -1.1997215221E+01   -1.1880463453E+01   -1.1765855241E+01   -1.1653321009E+01
   -1.1542795256E+01   -1.1434216431E+01   -1.1327526795E+01   -1.1222672278E+01
   -1.1119602332E+01   -1.1018269767E+01   -1.0918630582E+01   -1.0820643784E+01
   -1.0724271196E+01   -1.0629477252E+01   -1.0536228785E+01   -1.0444494798E+01
   -1.0354246238E+01   -1.0265455754E+01   -1.0178097453E+01   -1.0092146662E+01
   -1.0007579683E+01   -9.9243735590E+00   -9.8425058486E+00   -9.7619544114E+00
   -9.6826971677E+00   -9.6047119375E+00   -9.5279764747E+00   -9.4524681596E+00
   -9.3781639069E+00   -9.3050400937E+00   -9.2330725293E+00   -9.1622366874E+00
   -9.0925082479E+00   -9.0238629349E+00   -8.9562764143E+00   -8.8897244020E+00
   -8.8241827158E+00   -8.7596273539E+00   -8.6960345744E+00   -8.6333809793E+00
   -8.5716435994E+00   -8.5107999647E+00   -8.4508281655E+00   -8.3917070012E+00
   -8.3334160476E+00   -8.2759356351E+00   -8.2192469276E+00   -8.1633319432E+00
   -8.1081735828E+00   -8.0537557344E+00   -8.0000634069E+00   -7.9470822530E+00
   -7.8947982034E+00   -7.8431975985E+00   -7.7922671254E+00   -7.7419938155E+00
   -7.6923650328E+00   -7.6433684627E+00   -7.5949921025E+00   -7.5472242510E+00
   -7.5000534998E+00   -7.4534687235E+00   -7.4074590715E+00   -7.3620139591E+00
   -7.3171230600E+00   -7.2727762981E+00   -7.2289638398E+00   -7.1856760873E+00
   -7.1429036710E+00   -7.1006374431E+00   -7.0588684711E+00   -7.0175880314E+00
   -6.9767876031E+00   -6.9364588623E+00   -6.8965936766E+00   -6.8571840994E+00
   -6.8182223645E+00   -6.7797008814E+00   -6.7416122301E+00   -6.7039491564E+00
   -6.6667045672E+00   -6.6298715263E+00   -6.5934432498E+00   -6.5574131023E+00
   -6.5217745922E+00   -6.4865213687E+00   -6.4516472174E+00   -6.4171460569E+00
   -6.3830119349E+00   -6.3492390254E+00   -6.3158216250E+00   -6.2827541497E+00
   -6.2500311317E+00   -6.2176472167E+00   -6.1855971607E+00   -6.1538758273E+00
   -6.1224781851E+00   -6.0913993045E+00   -6.0606343558E+00   -6.0301786062E+00
   -6.0000274176E+00   -5.9701762444E+00   -5.9406206306E+00   -5.9113562084E+00
   -5.8823786955E+00   -5.8536838932E+00   -5.8252676841E+00   -5.7971260307E+00
   -5.7692549729E+00   -5.7416506265E+00   -5.7143091814E+00   -5.6872268995E+00
   -5.6604001134E+00   -5.6338252245E+00   -5.6074987014E+00   -5.5814170786E+00
   -5.5555769547E+00   -5.5299749908E+00   -5.5046079095E+00   -5.4794724933E+00
   -5.4545655829E+00   -5.4298840766E+00   -5.4054249282E+00   -5.3811851464E+00
   -5.3571617932E+00   -5.3333519829E+00   -5.3097528807E+00   -5.2863617021E+00
   -5.2631757111E+00   -5.2401922198E+00   -5.2174085867E+00   -5.1948222162E+00
   -5.1724305577E+00   -5.1502311040E+00   -5.1282213910E+00   -5.1063989965E+00
   -5.0847615392E+00   -5.0633066782E+00   -5.0420321119E+00   -5.0209355771E+00
   -5.0000148485E+00   -4.9792677375E+00   -4.9586920919E+00   -4.9382857949E+00
   -4.9180467643E+00   -4.8979729519E+00   -4.8780623428E+00   -4.8583129549E+00
   -4.8387228379E+00   -4.8192900729E+00   -4.8000127716E+00   -4.7808890760E+00
   -4.7619171573E+00   -4.7430952159E+00   -4.7244214803E+00   -4.7058942070E+00
   -4.6875116797E+00   -4.6692722088E+00   -4.6511741305E+00   -4.6332158065E+00
   -4.6153956262E+00   -4.5977120019E+00   -4.5801633668E+00   -4.5627481824E+00
   -4.5454649337E+00   -4.5283121263E+00   -4.5112882888E+00   -4.4943919722E+00
   -4.4776217491E+00   -4.4609762133E+00   -4.4444539792E+00   -4.4280536820E+00
   -4.4117739767E+00   -4.3956135382E+00   -4.3795710606E+00   -4.3636452571E+00
   -4.3478348595E+00   -4.3321386178E+00   -4.3165553003E+00   -4.3010836925E+00
   -4.2857225977E+00   -4.2704708360E+00   -4.2553272443E+00   -4.2402906759E+00
   -4.2253600002E+00   -4.2105341026E+00   -4.1958118840E+00   -4.1811922606E+00
   -4.1666741638E+00   -4.1522565396E+00   -4.1379383486E+00   -4.1237185658E+00
   -4.1095961801E+00   -4.0955701943E+00   -4.0816396246E+00   -4.0678035007E+00
   -4.0540608655E+00   -4.0404107744E+00   -4.0268522960E+00   -4.0133845110E+00
   -4.0000065124E+00   -3.9867174054E+00   -3.9735163068E+00   -3.9604023454E+00
   -3.9473746613E+00   -3.9344324056E+00   -3.9215747410E+00   -3.9088008408E+00
   -3.8961098891E+00   -3.8835010806E+00   -3.8709736202E+00   -3.8585267233E+00
   -3.8461596153E+00   -3.8338715313E+00   -3.8216617163E+00   -3.8095294249E+00
   -3.7974739212E+00   -3.7854944783E+00   -3.7735903788E+00   -3.7617609140E+00
   -3.7500053842E+00   -3.7383230985E+00   -3.7267133744E+00   -3.7151755380E+00
   -3.7037089236E+00   -3.6923128738E+00   -3.6809867392E+00   -3.6697298784E+00
   -3.6585416577E+00   -3.6474214512E+00   -3.6363686407E+00   -3.6253826152E+00
   -3.6144627712E+00   -3.6036085126E+00   -3.5928192501E+00   -3.5820944019E+00
   -3.5714333926E+00   -3.5608356540E+00   -3.5503006245E+00   -3.5398277491E+00
   -3.5294164795E+00   -3.5190662736E+00   -3.5087765957E+00   -3.4985469164E+00
   -3.4883767125E+00   -3.4782654668E+00   -3.4682126681E+00   -3.4582178110E+00
   -3.4482803961E+00   -3.4383999296E+00   -3.4285759232E+00   -3.4188078945E+00
   -3.4090953664E+00   -3.3994378671E+00   -3.3898349304E+00   -3.3802860950E+00
   -3.3707909051E+00   -3.3613489099E+00   -3.3519596635E+00   -3.3426227253E+00
   -3.3333376592E+00   -3.3241040342E+00   -3.3149214239E+00   -3.3057894068E+00
   -3.2967075659E+00   -3.2876754887E+00   -3.2786927673E+00   -3.2697589984E+00
   -3.2608737827E+00   -3.2520367255E+00   -3.2432474365E+00   -3.2345055292E+00
   -3.2258106215E+00   -3.2171623355E+00   -3.2085602972E+00   -3.2000041366E+00
   -3.1914934876E+00   -3.1830279880E+00   -3.1746072795E+00   -3.1662310076E+00
   -3.1578988215E+00   -3.1496103739E+00   -3.1413653215E+00   -3.1331633242E+00
   -3.1250040457E+00   -3.1168871532E+00   -3.1088123171E+00   -3.1007792116E+00
   -3.0927875138E+00   -3.0848369045E+00   -3.0769270675E+00   -3.0690576902E+00
   -3.0612284627E+00   -3.0534390786E+00   -3.0456892346E+00   -3.0379786303E+00
   -3.0303069684E+00   -3.0226739547E+00   -3.0150792979E+00   -3.0075227095E+00
   -3.0000039040E+00   -2.9925225988E+00   -2.9850785140E+00   -2.9776713725E+00
   -2.9703009000E+00   -2.9629668248E+00   -2.9556688781E+00   -2.9484067934E+00
   -2.9411803072E+00   -2.9339891583E+00   -2.9268330880E+00   -2.9197118405E+00
   -2.9126251621E+00   -2.9055728016E+00   -2.8985545105E+00   -2.8915700424E+00
   -2.8846191534E+00   -2.8777016020E+00   -2.8708171488E+00   -2.8639655569E+00
   -2.8571465915E+00   -2.8503600203E+00   -2.8436056127E+00   -2.8368831409E+00
   -2.8301923787E+00   -2.8235331024E+00   -2.8169050902E+00   -2.8103081225E+00