## written on 20Jun2022 at 12:29:59  with use_ws_distance=.true.
    0    0    0    1    1
    1
    0    0    0
    0    0    0    1    2
    1
    0   -1   -1
    0    0    0    2    1
    1
    0    1    1
    0    0    0    2    2
    1
    0    0    0
