File written on 20Jun2022 at 12:29:59 

calc_only_A  :  F

begin real_lattice
   6.6068000   0.0000000   0.0000000
   0.0000000   6.8929000   0.0000000
   0.0000000   0.0000000   6.2544000
end real_lattice

begin recip_lattice
   0.9510179   0.0000000   0.0000000
   0.0000000   0.9115445   0.0000000
   0.0000000   0.0000000   1.0046024
end recip_lattice

begin kpoints
     1
    0.00000000    0.00000000    0.00000000
end kpoints

begin projections
     2
   0.49606    0.58206    0.57765     0  1  1
    0.0000000  0.0000000  1.0000000   1.0000000  0.0000000  0.0000000    1.00
   0.54592    0.41794    0.42235     0  1  1
    0.0000000  0.0000000  1.0000000   1.0000000  0.0000000  0.0000000    1.00
end projections

begin nnkpts
   6
     1     1      0   1   0
     1     1      0  -1   0
     1     1      1   0   0
     1     1     -1   0   0
     1     1      0   0   1
     1     1      0   0  -1
end nnkpts

begin exclude_bands
   4
   1
   2
   3
   4
end exclude_bands
