<UPF version="2.0.1">
  <PP_INFO>

 This pseudopotential file has been produced using the code
 ONCVPSP  (Optimized Norm-Conservinng Vanderbilt PSeudopotential)
 scalar-relativistic version 3.3.1 12/12/2017 by D. R. Hamann
 The code is available through a link at URL www.mat-simresearch.com.
 Documentation with the package provides a full discription of the
 input data below.


 While it is not required under the terms of the GNU GPL, it is
 suggested that you cite D. R. Hamann, Phys. Rev. B 88, 085117 (2013)
 in any publication using these pseudopotentials.

    <PP_INPUTFILE>
# ATOM AND REFERENCE CONFIGURATION
# atsym  z   nc   nv     iexc    psfile
  He  2.00    0    1 -116133      upf
#
#   n    l    f        energy (Ha)
    1    0    2.00
#
# PSEUDOPOTENTIAL AND OPTIMIZATION
# lmax
    0
#
#   l,   rc,      ep,       ncon, nbas, qcut
    0   1.99006  -0.56958    5    8   7.17231
#
# LOCAL POTENTIAL
# lloc, lpopt,  rc(5),   dvloc0
    4    5   0.89489      0.00000
#
# VANDERBILT-KLEINMAN-BYLANDER PROJECTORs
# l, nproj, debl
    0    2   1.34022
#
# MODEL CORE CHARGE
# icmod, fcfact, rcfact
    0   0.00000   0.00000
#
# LOG DERIVATIVE ANALYSIS
# epsh1, epsh2, depsh
   -5.00    3.00    0.02
#
# OUTPUT GRID
# rlmax, drl
    6.00    0.01
#
# TEST CONFIGURATIONS
# ncnf
    0
# nvcnf
#   n    l    f
    </PP_INPUTFILE>
  </PP_INFO>
  <!--                               -->
  <!-- END OF HUMAN READABLE SECTION -->
  <!--                               -->
    <PP_HEADER
       generated="Generated using ONCVPSP code by D. R. Hamann"
       author="anonymous"
       date="190227"
       comment=""
       element="He"
       pseudo_type="NC"
       relativistic="scalar"
       is_ultrasoft="F"
       is_paw="F"
       is_coulomb="F"
       has_so="F"
       has_wfc="F"
       has_gipaw="F"
       core_correction="F"
       functional="PBESOL"
       z_valence="    2.00"
       total_psenergy="  -5.51622238214E+00"
       rho_cutoff="   7.31000000000E+00"
       l_max="0"
       l_local="-1"
       mesh_size="   732"
       number_of_wfc="1"
       number_of_proj="2"/>
 <PP_MESH>
   <PP_R type="real"  size=" 732" columns="8">
    0.0000    0.0100    0.0200    0.0300    0.0400    0.0500    0.0600    0.0700
    0.0800    0.0900    0.1000    0.1100    0.1200    0.1300    0.1400    0.1500
    0.1600    0.1700    0.1800    0.1900    0.2000    0.2100    0.2200    0.2300
    0.2400    0.2500    0.2600    0.2700    0.2800    0.2900    0.3000    0.3100
    0.3200    0.3300    0.3400    0.3500    0.3600    0.3700    0.3800    0.3900
    0.4000    0.4100    0.4200    0.4300    0.4400    0.4500    0.4600    0.4700
    0.4800    0.4900    0.5000    0.5100    0.5200    0.5300    0.5400    0.5500
    0.5600    0.5700    0.5800    0.5900    0.6000    0.6100    0.6200    0.6300
    0.6400    0.6500    0.6600    0.6700    0.6800    0.6900    0.7000    0.7100
    0.7200    0.7300    0.7400    0.7500    0.7600    0.7700    0.7800    0.7900
    0.8000    0.8100    0.8200    0.8300    0.8400    0.8500    0.8600    0.8700
    0.8800    0.8900    0.9000    0.9100    0.9200    0.9300    0.9400    0.9500
    0.9600    0.9700    0.9800    0.9900    1.0000    1.0100    1.0200    1.0300
    1.0400    1.0500    1.0600    1.0700    1.0800    1.0900    1.1000    1.1100
    1.1200    1.1300    1.1400    1.1500    1.1600    1.1700    1.1800    1.1900
    1.2000    1.2100    1.2200    1.2300    1.2400    1.2500    1.2600    1.2700
    1.2800    1.2900    1.3000    1.3100    1.3200    1.3300    1.3400    1.3500
    1.3600    1.3700    1.3800    1.3900    1.4000    1.4100    1.4200    1.4300
    1.4400    1.4500    1.4600    1.4700    1.4800    1.4900    1.5000    1.5100
    1.5200    1.5300    1.5400    1.5500    1.5600    1.5700    1.5800    1.5900
    1.6000    1.6100    1.6200    1.6300    1.6400    1.6500    1.6600    1.6700
    1.6800    1.6900    1.7000    1.7100    1.7200    1.7300    1.7400    1.7500
    1.7600    1.7700    1.7800    1.7900    1.8000    1.8100    1.8200    1.8300
    1.8400    1.8500    1.8600    1.8700    1.8800    1.8900    1.9000    1.9100
    1.9200    1.9300    1.9400    1.9500    1.9600    1.9700    1.9800    1.9900
    2.0000    2.0100    2.0200    2.0300    2.0400    2.0500    2.0600    2.0700
    2.0800    2.0900    2.1000    2.1100    2.1200    2.1300    2.1400    2.1500
    2.1600    2.1700    2.1800    2.1900    2.2000    2.2100    2.2200    2.2300
    2.2400    2.2500    2.2600    2.2700    2.2800    2.2900    2.3000    2.3100
    2.3200    2.3300    2.3400    2.3500    2.3600    2.3700    2.3800    2.3900
    2.4000    2.4100    2.4200    2.4300    2.4400    2.4500    2.4600    2.4700
    2.4800    2.4900    2.5000    2.5100    2.5200    2.5300    2.5400    2.5500
    2.5600    2.5700    2.5800    2.5900    2.6000    2.6100    2.6200    2.6300
    2.6400    2.6500    2.6600    2.6700    2.6800    2.6900    2.7000    2.7100
    2.7200    2.7300    2.7400    2.7500    2.7600    2.7700    2.7800    2.7900
    2.8000    2.8100    2.8200    2.8300    2.8400    2.8500    2.8600    2.8700
    2.8800    2.8900    2.9000    2.9100    2.9200    2.9300    2.9400    2.9500
    2.9600    2.9700    2.9800    2.9900    3.0000    3.0100    3.0200    3.0300
    3.0400    3.0500    3.0600    3.0700    3.0800    3.0900    3.1000    3.1100
    3.1200    3.1300    3.1400    3.1500    3.1600    3.1700    3.1800    3.1900
    3.2000    3.2100    3.2200    3.2300    3.2400    3.2500    3.2600    3.2700
    3.2800    3.2900    3.3000    3.3100    3.3200    3.3300    3.3400    3.3500
    3.3600    3.3700    3.3800    3.3900    3.4000    3.4100    3.4200    3.4300
    3.4400    3.4500    3.4600    3.4700    3.4800    3.4900    3.5000    3.5100
    3.5200    3.5300    3.5400    3.5500    3.5600    3.5700    3.5800    3.5900
    3.6000    3.6100    3.6200    3.6300    3.6400    3.6500    3.6600    3.6700
    3.6800    3.6900    3.7000    3.7100    3.7200    3.7300    3.7400    3.7500
    3.7600    3.7700    3.7800    3.7900    3.8000    3.8100    3.8200    3.8300
    3.8400    3.8500    3.8600    3.8700    3.8800    3.8900    3.9000    3.9100
    3.9200    3.9300    3.9400    3.9500    3.9600    3.9700    3.9800    3.9900
    4.0000    4.0100    4.0200    4.0300    4.0400    4.0500    4.0600    4.0700
    4.0800    4.0900    4.1000    4.1100    4.1200    4.1300    4.1400    4.1500
    4.1600    4.1700    4.1800    4.1900    4.2000    4.2100    4.2200    4.2300
    4.2400    4.2500    4.2600    4.2700    4.2800    4.2900    4.3000    4.3100
    4.3200    4.3300    4.3400    4.3500    4.3600    4.3700    4.3800    4.3900
    4.4000    4.4100    4.4200    4.4300    4.4400    4.4500    4.4600    4.4700
    4.4800    4.4900    4.5000    4.5100    4.5200    4.5300    4.5400    4.5500
    4.5600    4.5700    4.5800    4.5900    4.6000    4.6100    4.6200    4.6300
    4.6400    4.6500    4.6600    4.6700    4.6800    4.6900    4.7000    4.7100
    4.7200    4.7300    4.7400    4.7500    4.7600    4.7700    4.7800    4.7900
    4.8000    4.8100    4.8200    4.8300    4.8400    4.8500    4.8600    4.8700
    4.8800    4.8900    4.9000    4.9100    4.9200    4.9300    4.9400    4.9500
    4.9600    4.9700    4.9800    4.9900    5.0000    5.0100    5.0200    5.0300
    5.0400    5.0500    5.0600    5.0700    5.0800    5.0900    5.1000    5.1100
    5.1200    5.1300    5.1400    5.1500    5.1600    5.1700    5.1800    5.1900
    5.2000    5.2100    5.2200    5.2300    5.2400    5.2500    5.2600    5.2700
    5.2800    5.2900    5.3000    5.3100    5.3200    5.3300    5.3400    5.3500
    5.3600    5.3700    5.3800    5.3900    5.4000    5.4100    5.4200    5.4300
    5.4400    5.4500    5.4600    5.4700    5.4800    5.4900    5.5000    5.5100
    5.5200    5.5300    5.5400    5.5500    5.5600    5.5700    5.5800    5.5900
    5.6000    5.6100    5.6200    5.6300    5.6400    5.6500    5.6600    5.6700
    5.6800    5.6900    5.7000    5.7100    5.7200    5.7300    5.7400    5.7500
    5.7600    5.7700    5.7800    5.7900    5.8000    5.8100    5.8200    5.8300
    5.8400    5.8500    5.8600    5.8700    5.8800    5.8900    5.9000    5.9100
    5.9200    5.9300    5.9400    5.9500    5.9600    5.9700    5.9800    5.9900
    6.0000    6.0100    6.0200    6.0300    6.0400    6.0500    6.0600    6.0700
    6.0800    6.0900    6.1000    6.1100    6.1200    6.1300    6.1400    6.1500
    6.1600    6.1700    6.1800    6.1900    6.2000    6.2100    6.2200    6.2300
    6.2400    6.2500    6.2600    6.2700    6.2800    6.2900    6.3000    6.3100
    6.3200    6.3300    6.3400    6.3500    6.3600    6.3700    6.3800    6.3900
    6.4000    6.4100    6.4200    6.4300    6.4400    6.4500    6.4600    6.4700
    6.4800    6.4900    6.5000    6.5100    6.5200    6.5300    6.5400    6.5500
    6.5600    6.5700    6.5800    6.5900    6.6000    6.6100    6.6200    6.6300
    6.6400    6.6500    6.6600    6.6700    6.6800    6.6900    6.7000    6.7100
    6.7200    6.7300    6.7400    6.7500    6.7600    6.7700    6.7800    6.7900
    6.8000    6.8100    6.8200    6.8300    6.8400    6.8500    6.8600    6.8700
    6.8800    6.8900    6.9000    6.9100    6.9200    6.9300    6.9400    6.9500
    6.9600    6.9700    6.9800    6.9900    7.0000    7.0100    7.0200    7.0300
    7.0400    7.0500    7.0600    7.0700    7.0800    7.0900    7.1000    7.1100
    7.1200    7.1300    7.1400    7.1500    7.1600    7.1700    7.1800    7.1900
    7.2000    7.2100    7.2200    7.2300    7.2400    7.2500    7.2600    7.2700
    7.2800    7.2900    7.3000    7.3100
   </PP_R>
   <PP_RAB type="real"  size=" 732" columns="8">
    0.0100    0.0100    0.0100    0.0100    0.0100    0.0100    0.0100    0.0100
    0.0100    0.0100    0.0100    0.0100    0.0100    0.0100    0.0100    0.0100
    0.0100    0.0100    0.0100    0.0100    0.0100    0.0100    0.0100    0.0100
    0.0100    0.0100    0.0100    0.0100    0.0100    0.0100    0.0100    0.0100
    0.0100    0.0100    0.0100    0.0100    0.0100    0.0100    0.0100    0.0100
    0.0100    0.0100    0.0100    0.0100    0.0100    0.0100    0.0100    0.0100
    0.0100    0.0100    0.0100    0.0100    0.0100    0.0100    0.0100    0.0100
    0.0100    0.0100    0.0100    0.0100    0.0100    0.0100    0.0100    0.0100
    0.0100    0.0100    0.0100    0.0100    0.0100    0.0100    0.0100    0.0100
    0.0100    0.0100    0.0100    0.0100    0.0100    0.0100    0.0100    0.0100
    0.0100    0.0100    0.0100    0.0100    0.0100    0.0100    0.0100    0.0100
    0.0100    0.0100    0.0100    0.0100    0.0100    0.0100    0.0100    0.0100
    0.0100    0.0100    0.0100    0.0100    0.0100    0.0100    0.0100    0.0100
    0.0100    0.0100    0.0100    0.0100    0.0100    0.0100    0.0100    0.0100
    0.0100    0.0100    0.0100    0.0100    0.0100    0.0100    0.0100    0.0100
    0.0100    0.0100    0.0100    0.0100    0.0100    0.0100    0.0100    0.0100
    0.0100    0.0100    0.0100    0.0100    0.0100    0.0100    0.0100    0.0100
    0.0100    0.0100    0.0100    0.0100    0.0100    0.0100    0.0100    0.0100
    0.0100    0.0100    0.0100    0.0100    0.0100    0.0100    0.0100    0.0100
    0.0100    0.0100    0.0100    0.0100    0.0100    0.0100    0.0100    0.0100
    0.0100    0.0100    0.0100    0.0100    0.0100    0.0100    0.0100    0.0100
    0.0100    0.0100    0.0100    0.0100    0.0100    0.0100    0.0100    0.0100
    0.0100    0.0100    0.0100    0.0100    0.0100    0.0100    0.0100    0.0100
    0.0100    0.0100    0.0100    0.0100    0.0100    0.0100    0.0100    0.0100
    0.0100    0.0100    0.0100    0.0100    0.0100    0.0100    0.0100    0.0100
    0.0100    0.0100    0.0100    0.0100    0.0100    0.0100    0.0100    0.0100
    0.0100    0.0100    0.0100    0.0100    0.0100    0.0100    0.0100    0.0100
    0.0100    0.0100    0.0100    0.0100    0.0100    0.0100    0.0100    0.0100
    0.0100    0.0100    0.0100    0.0100    0.0100    0.0100    0.0100    0.0100
    0.0100    0.0100    0.0100    0.0100    0.0100    0.0100    0.0100    0.0100
    0.0100    0.0100    0.0100    0.0100    0.0100    0.0100    0.0100    0.0100
    0.0100    0.0100    0.0100    0.0100    0.0100    0.0100    0.0100    0.0100
    0.0100    0.0100    0.0100    0.0100    0.0100    0.0100    0.0100    0.0100
    0.0100    0.0100    0.0100    0.0100    0.0100    0.0100    0.0100    0.0100
    0.0100    0.0100    0.0100    0.0100    0.0100    0.0100    0.0100    0.0100
    0.0100    0.0100    0.0100    0.0100    0.0100    0.0100    0.0100    0.0100
    0.0100    0.0100    0.0100    0.0100    0.0100    0.0100    0.0100    0.0100
    0.0100    0.0100    0.0100    0.0100    0.0100    0.0100    0.0100    0.0100
    0.0100    0.0100    0.0100    0.0100    0.0100    0.0100    0.0100    0.0100
    0.0100    0.0100    0.0100    0.0100    0.0100    0.0100    0.0100    0.0100
    0.0100    0.0100    0.0100    0.0100    0.0100    0.0100    0.0100    0.0100
    0.0100    0.0100    0.0100    0.0100    0.0100    0.0100    0.0100    0.0100
    0.0100    0.0100    0.0100    0.0100    0.0100    0.0100    0.0100    0.0100
    0.0100    0.0100    0.0100    0.0100    0.0100    0.0100    0.0100    0.0100
    0.0100    0.0100    0.0100    0.0100    0.0100    0.0100    0.0100    0.0100
    0.0100    0.0100    0.0100    0.0100    0.0100    0.0100    0.0100    0.0100
    0.0100    0.0100    0.0100    0.0100    0.0100    0.0100    0.0100    0.0100
    0.0100    0.0100    0.0100    0.0100    0.0100    0.0100    0.0100    0.0100
    0.0100    0.0100    0.0100    0.0100    0.0100    0.0100    0.0100    0.0100
    0.0100    0.0100    0.0100    0.0100    0.0100    0.0100    0.0100    0.0100
    0.0100    0.0100    0.0100    0.0100    0.0100    0.0100    0.0100    0.0100
    0.0100    0.0100    0.0100    0.0100    0.0100    0.0100    0.0100    0.0100
    0.0100    0.0100    0.0100    0.0100    0.0100    0.0100    0.0100    0.0100
    0.0100    0.0100    0.0100    0.0100    0.0100    0.0100    0.0100    0.0100
    0.0100    0.0100    0.0100    0.0100    0.0100    0.0100    0.0100    0.0100
    0.0100    0.0100    0.0100    0.0100    0.0100    0.0100    0.0100    0.0100
    0.0100    0.0100    0.0100    0.0100    0.0100    0.0100    0.0100    0.0100
    0.0100    0.0100    0.0100    0.0100    0.0100    0.0100    0.0100    0.0100
    0.0100    0.0100    0.0100    0.0100    0.0100    0.0100    0.0100    0.0100
    0.0100    0.0100    0.0100    0.0100    0.0100    0.0100    0.0100    0.0100
    0.0100    0.0100    0.0100    0.0100    0.0100    0.0100    0.0100    0.0100
    0.0100    0.0100    0.0100    0.0100    0.0100    0.0100    0.0100    0.0100
    0.0100    0.0100    0.0100    0.0100    0.0100    0.0100    0.0100    0.0100
    0.0100    0.0100    0.0100    0.0100    0.0100    0.0100    0.0100    0.0100
    0.0100    0.0100    0.0100    0.0100    0.0100    0.0100    0.0100    0.0100
    0.0100    0.0100    0.0100    0.0100    0.0100    0.0100    0.0100    0.0100
    0.0100    0.0100    0.0100    0.0100    0.0100    0.0100    0.0100    0.0100
    0.0100    0.0100    0.0100    0.0100    0.0100    0.0100    0.0100    0.0100
    0.0100    0.0100    0.0100    0.0100    0.0100    0.0100    0.0100    0.0100
    0.0100    0.0100    0.0100    0.0100    0.0100    0.0100    0.0100    0.0100
    0.0100    0.0100    0.0100    0.0100    0.0100    0.0100    0.0100    0.0100
    0.0100    0.0100    0.0100    0.0100    0.0100    0.0100    0.0100    0.0100
    0.0100    0.0100    0.0100    0.0100    0.0100    0.0100    0.0100    0.0100
    0.0100    0.0100    0.0100    0.0100    0.0100    0.0100    0.0100    0.0100
    0.0100    0.0100    0.0100    0.0100    0.0100    0.0100    0.0100    0.0100
    0.0100    0.0100    0.0100    0.0100    0.0100    0.0100    0.0100    0.0100
    0.0100    0.0100    0.0100    0.0100    0.0100    0.0100    0.0100    0.0100
    0.0100    0.0100    0.0100    0.0100    0.0100    0.0100    0.0100    0.0100
    0.0100    0.0100    0.0100    0.0100    0.0100    0.0100    0.0100    0.0100
    0.0100    0.0100    0.0100    0.0100    0.0100    0.0100    0.0100    0.0100
    0.0100    0.0100    0.0100    0.0100    0.0100    0.0100    0.0100    0.0100
    0.0100    0.0100    0.0100    0.0100    0.0100    0.0100    0.0100    0.0100
    0.0100    0.0100    0.0100    0.0100    0.0100    0.0100    0.0100    0.0100
    0.0100    0.0100    0.0100    0.0100    0.0100    0.0100    0.0100    0.0100
    0.0100    0.0100    0.0100    0.0100    0.0100    0.0100    0.0100    0.0100
    0.0100    0.0100    0.0100    0.0100    0.0100    0.0100    0.0100    0.0100
    0.0100    0.0100    0.0100    0.0100    0.0100    0.0100    0.0100    0.0100
    0.0100    0.0100    0.0100    0.0100    0.0100    0.0100    0.0100    0.0100
    0.0100    0.0100    0.0100    0.0100    0.0100    0.0100    0.0100    0.0100
    0.0100    0.0100    0.0100    0.0100    0.0100    0.0100    0.0100    0.0100
    0.0100    0.0100    0.0100    0.0100    0.0100    0.0100    0.0100    0.0100
    0.0100    0.0100    0.0100    0.0100
   </PP_RAB>
 </PP_MESH>
  <PP_LOCAL type="real"  size=" 732" columns="4">
   -9.6740566423E+00   -9.6727495726E+00   -9.6688296090E+00   -9.6623011681E+00
   -9.6531715354E+00   -9.6414508752E+00   -9.6271522193E+00   -9.6102914417E+00
   -9.5908872273E+00   -9.5689610352E+00   -9.5445370568E+00   -9.5176421695E+00
   -9.4883058847E+00   -9.4565602935E+00   -9.4224400062E+00   -9.3859820900E+00
   -9.3472260021E+00   -9.3062135203E+00   -9.2629886707E+00   -9.2175976529E+00
   -9.1700887632E+00   -9.1205123154E+00   -9.0689205607E+00   -9.0153676053E+00
   -8.9599093277E+00   -8.9026032942E+00   -8.8435086744E+00   -8.7826861551E+00
   -8.7201978548E+00   -8.6561072366E+00   -8.5904790221E+00   -8.5233791040E+00
   -8.4548744590E+00   -8.3850330611E+00   -8.3139237937E+00   -8.2416163626E+00
   -8.1681812087E+00   -8.0936894204E+00   -8.0182126461E+00   -7.9418230066E+00
   -7.8645930072E+00   -7.7865954497E+00   -7.7079033443E+00   -7.6285898206E+00
   -7.5487280390E+00   -7.4683911011E+00   -7.3876519598E+00   -7.3065833288E+00
   -7.2252575915E+00   -7.1437467090E+00   -7.0621221280E+00   -6.9804546866E+00
   -6.8988145206E+00   -6.8172709682E+00   -6.7358924731E+00   -6.6547464881E+00
   -6.5738993757E+00   -6.4934163090E+00   -6.4133611708E+00   -6.3337964513E+00
   -6.2547831449E+00   -6.1763806453E+00   -6.0986466396E+00   -6.0216370006E+00
   -5.9454056785E+00   -5.8700045900E+00   -5.7954835076E+00   -5.7218899458E+00
   -5.6492690476E+00   -5.5776634685E+00   -5.5071132600E+00   -5.4376557512E+00
   -5.3693254302E+00   -5.3021538233E+00   -5.2361693743E+00   -5.1713973221E+00
   -5.1078595778E+00   -5.0455746012E+00   -4.9845572763E+00   -4.9248187867E+00
   -4.8663664902E+00   -4.8092037931E+00   -4.7533300245E+00   -4.6987403098E+00
   -4.6454254446E+00   -4.5933717677E+00   -4.5425610345E+00   -4.4929702894E+00
   -4.4445717366E+00   -4.3973326535E+00   -4.3512150962E+00   -4.3061775992E+00
   -4.2621786900E+00   -4.2191785977E+00   -4.1771390085E+00   -4.1360230601E+00
   -4.0957952930E+00   -4.0564216067E+00   -4.0178692212E+00   -3.9801066405E+00
   -3.9431036202E+00   -3.9068311365E+00   -3.8712613567E+00   -3.8363676121E+00
   -3.8021243704E+00   -3.7685072097E+00   -3.7354927922E+00   -3.7030588382E+00
   -3.6711840996E+00   -3.6398483334E+00   -3.6090322746E+00   -3.5787176084E+00
   -3.5488869419E+00   -3.5195237754E+00   -3.4906124733E+00   -3.4621382338E+00
   -3.4340870591E+00   -3.4064457246E+00   -3.3792017488E+00   -3.3523433628E+00
   -3.3258594789E+00   -3.2997396608E+00   -3.2739740934E+00   -3.2485535538E+00
   -3.2234693813E+00   -3.1987134501E+00   -3.1742781406E+00   -3.1501563134E+00
   -3.1263412826E+00   -3.1028267905E+00   -3.0796069834E+00   -3.0566763881E+00
   -3.0340298883E+00   -3.0116627033E+00   -2.9895703660E+00   -2.9677487023E+00
   -2.9461938111E+00   -2.9249020441E+00   -2.9038699870E+00   -2.8830944404E+00
   -2.8625724011E+00   -2.8423010439E+00   -2.8222777033E+00   -2.8024998560E+00
   -2.7829651024E+00   -2.7636711495E+00   -2.7446157934E+00   -2.7257969017E+00
   -2.7072123970E+00   -2.6888602399E+00   -2.6707384129E+00   -2.6528449047E+00
   -2.6351776949E+00   -2.6177347400E+00   -2.6005139594E+00   -2.5835132234E+00
   -2.5667303416E+00   -2.5501630527E+00   -2.5338090161E+00   -2.5176658046E+00
   -2.5017308987E+00   -2.4860016828E+00   -2.4704754430E+00   -2.4551493669E+00
   -2.4400205444E+00   -2.4250859718E+00   -2.4103425558E+00   -2.3957871205E+00
   -2.3814164151E+00   -2.3672271237E+00   -2.3532158756E+00   -2.3393792574E+00
   -2.3257138251E+00   -2.3122161179E+00   -2.2988826714E+00   -2.2857100315E+00
   -2.2726947683E+00   -2.2598334897E+00   -2.2471228542E+00   -2.2345595833E+00
   -2.2221404730E+00   -2.2098624040E+00   -2.1977223509E+00   -2.1857173898E+00
   -2.1738447050E+00   -2.1621015933E+00   -2.1504854675E+00   -2.1389938580E+00
   -2.1276244127E+00   -2.1163748955E+00   -2.1052431835E+00   -2.0942272623E+00
   -2.0833252201E+00   -2.0725352416E+00   -2.0618555988E+00   -2.0512846430E+00
   -2.0408207954E+00   -2.0304625355E+00   -2.0202083912E+00   -2.0100569276E+00
   -2.0000067322E+00   -1.9900564011E+00   -1.9802045357E+00   -1.9704497304E+00
   -1.9607905770E+00   -1.9512256766E+00   -1.9417536495E+00   -1.9323731366E+00
   -1.9230828142E+00   -1.9138813894E+00   -1.9047675959E+00   -1.8957401888E+00
   -1.8867979481E+00   -1.8779396745E+00   -1.8691641896E+00   -1.8604703372E+00
   -1.8518569839E+00   -1.8433230172E+00   -1.8348673446E+00   -1.8264888936E+00
   -1.8181866112E+00   -1.8099594634E+00   -1.8018064350E+00   -1.7937265287E+00
   -1.7857187655E+00   -1.7777821832E+00   -1.7699158372E+00   -1.7621187991E+00
   -1.7543901571E+00   -1.7467290151E+00   -1.7391344928E+00   -1.7316057249E+00
   -1.7241418612E+00   -1.7167420660E+00   -1.7094055180E+00   -1.7021314097E+00
   -1.6949189474E+00   -1.6877673509E+00   -1.6806758528E+00   -1.6736436989E+00
   -1.6666701472E+00   -1.6597544685E+00   -1.6528959451E+00   -1.6460938716E+00
   -1.6393475537E+00   -1.6326563089E+00   -1.6260194655E+00   -1.6194363627E+00
   -1.6129063505E+00   -1.6064287892E+00   -1.6000030493E+00   -1.5936285116E+00
   -1.5873045664E+00   -1.5810306138E+00   -1.5748060633E+00   -1.5686303338E+00
   -1.5625028531E+00   -1.5564230580E+00   -1.5503903940E+00   -1.5444043151E+00
   -1.5384642839E+00   -1.5325697709E+00   -1.5267202551E+00   -1.5209152231E+00
   -1.5151541695E+00   -1.5094365962E+00   -1.5037620130E+00   -1.4981299368E+00
   -1.4925398917E+00   -1.4869914090E+00   -1.4814840269E+00   -1.4760172903E+00
   -1.4705907510E+00   -1.4652039671E+00   -1.4598565035E+00   -1.4545479311E+00
   -1.4492778273E+00   -1.4440457752E+00   -1.4388513644E+00   -1.4336941900E+00
   -1.4285738531E+00   -1.4234899603E+00   -1.4184421240E+00   -1.4134299619E+00
   -1.4084530972E+00   -1.4035111582E+00   -1.3986037786E+00   -1.3937305972E+00
   -1.3888912577E+00   -1.3840854088E+00   -1.3793127040E+00   -1.3745728016E+00
   -1.3698653645E+00   -1.3651900605E+00   -1.3605465615E+00   -1.3559345441E+00
   -1.3513536892E+00   -1.3468036820E+00   -1.3422842120E+00   -1.3377949728E+00
   -1.3333356620E+00   -1.3289059814E+00   -1.3245056365E+00   -1.3201343369E+00
   -1.3157917961E+00   -1.3114777310E+00   -1.3071918626E+00   -1.3029339152E+00
   -1.2987036168E+00   -1.2945006992E+00   -1.2903248972E+00   -1.2861759492E+00
   -1.2820535972E+00   -1.2779575861E+00   -1.2738876642E+00   -1.2698435831E+00
   -1.2658250975E+00   -1.2618319651E+00   -1.2578639467E+00   -1.2539208062E+00
   -1.2500023103E+00   -1.2461082286E+00   -1.2422383338E+00   -1.2383924011E+00
   -1.2345702086E+00   -1.2307715373E+00   -1.2269961707E+00   -1.2232438949E+00
   -1.2195144988E+00   -1.2158077737E+00   -1.2121235135E+00   -1.2084615146E+00
   -1.2048215759E+00   -1.2012034986E+00   -1.1976070862E+00   -1.1940321450E+00
   -1.1904784830E+00   -1.1869459109E+00   -1.1834342414E+00   -1.1799432897E+00
   -1.1764728728E+00   -1.1730228102E+00   -1.1695929233E+00   -1.1661830356E+00
   -1.1627929727E+00   -1.1594225622E+00   -1.1560716337E+00   -1.1527400188E+00
   -1.1494275510E+00   -1.1461340656E+00   -1.1428594001E+00   -1.1396033935E+00
   -1.1363658867E+00   -1.1331467227E+00   -1.1299457459E+00   -1.1267628026E+00
   -1.1235977409E+00   -1.1204504105E+00   -1.1173206628E+00   -1.1142083509E+00
   -1.1111133295E+00   -1.1080354549E+00   -1.1049745850E+00   -1.1019305792E+00
   -1.0989032987E+00   -1.0958926058E+00   -1.0928983646E+00   -1.0899204408E+00
   -1.0869587011E+00   -1.0840130142E+00   -1.0810832497E+00   -1.0781692790E+00
   -1.0752709746E+00   -1.0723882107E+00   -1.0695208625E+00   -1.0666688066E+00
   -1.0638319212E+00   -1.0610100854E+00   -1.0582031799E+00   -1.0554110864E+00
   -1.0526336880E+00   -1.0498708690E+00   -1.0471225150E+00   -1.0443885125E+00
   -1.0416687495E+00   -1.0389631151E+00   -1.0362714993E+00   -1.0335937937E+00
   -1.0309298905E+00   -1.0282796834E+00   -1.0256430670E+00   -1.0230199370E+00
   -1.0204101902E+00   -1.0178137245E+00   -1.0152304388E+00   -1.0126602328E+00
   -1.0101030076E+00   -1.0075586651E+00   -1.0050271081E+00   -1.0025082406E+00
   -1.0000019672E+00   -9.9750819396E-01   -9.9502682743E-01   -9.9255777529E-01
   -9.9010094610E-01   -9.8765624932E-01   -9.8522359531E-01   -9.8280289530E-01
   -9.8039406139E-01   -9.7799700654E-01   -9.7561164457E-01   -9.7323789014E-01
   -9.7087565872E-01   -9.6852486660E-01   -9.6618543091E-01   -9.6385726954E-01
   -9.6154030119E-01   -9.5923444534E-01   -9.5693962223E-01   -9.5465575288E-01
   -9.5238275903E-01   -9.5012056320E-01   -9.4786908862E-01   -9.4562825926E-01
   -9.4339799980E-01   -9.4117823562E-01   -9.3896889283E-01   -9.3676989819E-01
   -9.3458117919E-01   -9.3240266396E-01   -9.3023428131E-01   -9.2807596072E-01
   -9.2592763231E-01   -9.2378922686E-01   -9.2166067576E-01   -9.1954191108E-01
   -9.1743286545E-01   -9.1533347218E-01   -9.1324366514E-01   -9.1116337882E-01
   -9.0909254832E-01   -9.0703110931E-01   -9.0497899805E-01   -9.0293615136E-01
   -9.0090250666E-01   -8.9887800190E-01   -8.9686257562E-01   -8.9485616687E-01
   -8.9285871528E-01   -8.9087016100E-01   -8.8889044472E-01   -8.8691950764E-01
   -8.8495729150E-01   -8.8300373854E-01   -8.8105879153E-01   -8.7912239371E-01
   -8.7719448884E-01   -8.7527502118E-01   -8.7336393545E-01   -8.7146117687E-01
   -8.6956669115E-01   -8.6768042443E-01   -8.6580232336E-01   -8.6393233502E-01
   -8.6207040696E-01   -8.6021648718E-01   -8.5837052413E-01   -8.5653246669E-01
   -8.5470226418E-01   -8.5287986636E-01   -8.5106522342E-01   -8.4925828596E-01
   -8.4745900501E-01   -8.4566733200E-01   -8.4388321878E-01   -8.4210661761E-01
   -8.4033748115E-01   -8.3857576244E-01   -8.3682141494E-01   -8.3507439247E-01
   -8.3333464926E-01   -8.3160213991E-01   -8.2987681938E-01   -8.2815864304E-01
   -8.2644756660E-01   -8.2474354613E-01   -8.2304653810E-01   -8.2135649930E-01
   -8.1967338688E-01   -8.1799715836E-01   -8.1632777159E-01   -8.1466518477E-01
   -8.1300935643E-01   -8.1136024544E-01   -8.0971781102E-01   -8.0808201270E-01
   -8.0645281034E-01   -8.0483016413E-01   -8.0321403457E-01   -8.0160438249E-01
   -8.0000116902E-01   -7.9840435561E-01   -7.9681390401E-01   -7.9522977627E-01
   -7.9365193476E-01   -7.9208034213E-01   -7.9051496134E-01   -7.8895575562E-01
   -7.8740268851E-01   -7.8585572383E-01   -7.8431482569E-01   -7.8277995846E-01
   -7.8125108682E-01   -7.7972817569E-01   -7.7821119030E-01   -7.7670009612E-01
   -7.7519485889E-01   -7.7369544465E-01   -7.7220181965E-01   -7.7071395044E-01
   -7.6923180382E-01   -7.6775534682E-01   -7.6628454676E-01   -7.6481937117E-01
   -7.6335978787E-01   -7.6190576490E-01   -7.6045727053E-01   -7.5901427331E-01
   -7.5757674200E-01   -7.5614464559E-01   -7.5471795334E-01   -7.5329663469E-01
   -7.5188065936E-01   -7.5046999727E-01   -7.4906461856E-01   -7.4766449362E-01
   -7.4626959303E-01   -7.4487988762E-01   -7.4349534840E-01   -7.4211594663E-01
   -7.4074165377E-01   -7.3937244148E-01   -7.3800828165E-01   -7.3664914635E-01
   -7.3529500789E-01   -7.3394583876E-01   -7.3260161164E-01   -7.3126229944E-01
   -7.2992787526E-01   -7.2859831238E-01   -7.2727358428E-01   -7.2595366464E-01
   -7.2463852733E-01   -7.2332814641E-01   -7.2202249611E-01   -7.2072155087E-01
   -7.1942528530E-01   -7.1813367420E-01   -7.1684669254E-01   -7.1556431547E-01
   -7.1428651834E-01   -7.1301327664E-01   -7.1174456606E-01   -7.1048036246E-01
   -7.0922064186E-01   -7.0796538046E-01   -7.0671455463E-01   -7.0546814089E-01
   -7.0422611594E-01   -7.0298845665E-01   -7.0175514003E-01   -7.0052614327E-01
   -6.9930144372E-01   -6.9808101887E-01   -6.9686484638E-01   -6.9565290407E-01
   -6.9444516990E-01   -6.9324162200E-01   -6.9204223864E-01   -6.9084699824E-01
   -6.8965587936E-01   -6.8846886074E-01   -6.8728592122E-01   -6.8610703984E-01
   -6.8493219572E-01   -6.8376136818E-01   -6.8259453666E-01   -6.8143168071E-01
   -6.8027278008E-01   -6.7911781460E-01   -6.7796676427E-01   -6.7681960921E-01
   -6.7567632969E-01   -6.7453690610E-01   -6.7340131896E-01   -6.7226954894E-01
   -6.7114157681E-01   -6.7001738349E-01   -6.6889695003E-01   -6.6778025760E-01
   -6.6666728748E-01   -6.6555802110E-01   -6.6445244001E-01   -6.6335052586E-01
   -6.6225226045E-01   -6.6115762567E-01   -6.6006660357E-01   -6.5897917627E-01
   -6.5789532605E-01   -6.5681503529E-01   -6.5573828647E-01   -6.5466506221E-01
   -6.5359534523E-01   -6.5252911836E-01   -6.5146636456E-01   -6.5040706688E-01
   -6.4935120849E-01   -6.4829877267E-01   -6.4724974279E-01   -6.4620410236E-01
   -6.4516183498E-01   -6.4412292435E-01   -6.4308735427E-01   -6.4205510867E-01
   -6.4102617156E-01   -6.4000052706E-01   -6.3897815939E-01   -6.3795905287E-01
   -6.3694319193E-01   -6.3593056107E-01   -6.3492114493E-01   -6.3391492822E-01
   -6.3291189575E-01   -6.3191203242E-01   -6.3091532325E-01   -6.2992175334E-01