
     Program PWSCF v.7.0 starts on 20Jun2022 at 14: 0:32 

     This program is part of the open-source Quantum ESPRESSO suite
     for quantum simulation of materials; please cite
         "P. Giannozzi et al., J. Phys.:Condens. Matter 21 395502 (2009);
         "P. Giannozzi et al., J. Phys.:Condens. Matter 29 465901 (2017);
         "P. Giannozzi et al., J. Chem. Phys. 152 154105 (2020);
          URL http://www.quantum-espresso.org", 
     in publications or presentations arising from this work. More details at
     http://www.quantum-espresso.org/quote

     Parallel version (MPI), running on     8 processors

     MPI processes distributed on     1 nodes
     28355 MiB available memory on the printing compute node when the environment starts
 
     Reading input from bands.pwi
Warning: card &IONS ignored
Warning: card / ignored
Warning: card &CELL ignored
Warning: card / ignored

     Current dimensions of program PWSCF are:
     Max number of different atomic species (ntypx) = 10
     Max number of k-points (npk) =  40000
     Max angular momentum in pseudopotentials (lmaxx) =  4

     Atomic positions and unit cell read from directory:
     /home/yshubert/code/koopmans/Yannick_tests/simple_water/snapshot_1/init/wannier/TMP/kc_bands.save/
     Atomic positions from file used, from input discarded
 
 
     R & G space division:  proc/nbgrp/npool/nimage =       8
     Subspace diagonalization in iterative solution of the eigenvalue problem:
     a serial algorithm will be used

 
     Parallelization info
     --------------------
     sticks:   dense  smooth     PW     G-vecs:    dense   smooth      PW
     Min         582     582    152                27708    27708    3762
     Max         583     583    153                27712    27712    3767
     Sum        4657    4657   1223               221683   221683   30123
 
     Using Slab Decomposition
 


     bravais-lattice index     =            0
     lattice parameter (alat)  =      12.4850  a.u.
     unit-cell volume          =    1922.0974 (a.u.)^3
     number of atoms/cell      =            3
     number of atomic types    =            2
     number of electrons       =         8.00
     number of Kohn-Sham states=           12
     kinetic-energy cutoff     =      90.0000  Ry
     charge density cutoff     =     360.0000  Ry
     Exchange-correlation= PBE
                           (   1   4   3   4   0   0   0)

     celldm(1)=  12.485043  celldm(2)=   0.000000  celldm(3)=   0.000000
     celldm(4)=   0.000000  celldm(5)=   0.000000  celldm(6)=   0.000000

     crystal axes: (cart. coord. in units of alat)
               a(1) = (   1.000000   0.000000   0.000000 )  
               a(2) = (   0.000000   1.043304   0.000000 )  
               a(3) = (   0.000000   0.000000   0.946661 )  

     reciprocal axes: (cart. coord. in units 2 pi/alat)
               b(1) = (  1.000000  0.000000  0.000000 )  
               b(2) = (  0.000000  0.958494  0.000000 )  
               b(3) = (  0.000000  0.000000  1.056344 )  


     PseudoPot. # 1 for O  read from file:
     /home/yshubert/code/koopmans/pseudos/sg15_relativistic_v1.0/pbe/O_ONCV_PBE_FR-1.0.upf
     MD5 check sum: 8c142c7faa8e5aed903a0e9e4f6af6a7
     Pseudo is Norm-conserving, Zval =  6.0
     Generated using ONCVPSP code by D. R. Hamann
     Using radial grid of  602 points,  4 beta functions with: 
                l(1) =   0
                l(2) =   0
                l(3) =   1
                l(4) =   1

     PseudoPot. # 2 for H  read from file:
     /home/yshubert/code/koopmans/pseudos/sg15_relativistic_v1.0/pbe/H_ONCV_PBE_FR-1.0.upf
     MD5 check sum: f4b67471852ba118c4a2c6085de6e351
     Pseudo is Norm-conserving, Zval =  1.0
     Generated using ONCVPSP code by D. R. Hamann
     Using radial grid of  602 points,  2 beta functions with: 
                l(1) =   0
                l(2) =   0

     atomic species   valence    mass     pseudopotential
        O              6.00    15.99900     O ( 1.00)
        H              1.00     1.00800     H ( 1.00)

     No symmetry found


                                    s                        frac. trans.

      isym =  1     identity                                     

 cryst.   s( 1) = (     1          0          0      )
                  (     0          1          0      )
                  (     0          0          1      )

 cart.    s( 1) = (  1.0000000  0.0000000  0.0000000 )
                  (  0.0000000  1.0000000  0.0000000 )
                  (  0.0000000  0.0000000  1.0000000 )


   Cartesian axes

     site n.     atom                  positions (alat units)
         1           O   tau(   1) = (   0.4540776   0.4721121   0.5083323  )
         2           H   tau(   2) = (   0.4960647   0.6072607   0.5468381  )
         3           H   tau(   3) = (   0.5459224   0.4360432   0.3998229  )

   Crystallographic axes

     site n.     atom                  positions (cryst. coord.)
         1           O   tau(   1) = (  0.4540776  0.4525164  0.5369740  )
         2           H   tau(   2) = (  0.4960647  0.5820554  0.5776493  )
         3           H   tau(   3) = (  0.5459224  0.4179446  0.4223507  )

     number of k points=    11
                       cart. coord. in units 2pi/alat
        k(    1) = (   0.0000000   0.0000000   0.0000000), wk =   0.1818182
        k(    2) = (   0.0000000   0.0000000   0.0528172), wk =   0.1818182
        k(    3) = (   0.0000000   0.0000000   0.1056344), wk =   0.1818182
        k(    4) = (   0.0000000   0.0000000   0.1584517), wk =   0.1818182
        k(    5) = (   0.0000000   0.0000000   0.2112689), wk =   0.1818182
        k(    6) = (   0.0000000   0.0000000   0.2640861), wk =   0.1818182
        k(    7) = (   0.0000000   0.0000000   0.3169033), wk =   0.1818182
        k(    8) = (   0.0000000   0.0000000   0.3697205), wk =   0.1818182
        k(    9) = (   0.0000000   0.0000000   0.4225377), wk =   0.1818182
        k(   10) = (   0.0000000   0.0000000   0.4753550), wk =   0.1818182
        k(   11) = (   0.0000000   0.0000000   0.5281722), wk =   0.1818182

                       cryst. coord.
        k(    1) = (   0.0000000   0.0000000   0.0000000), wk =   0.1818182
        k(    2) = (   0.0000000   0.0000000   0.0500000), wk =   0.1818182
        k(    3) = (   0.0000000   0.0000000   0.1000000), wk =   0.1818182
        k(    4) = (   0.0000000   0.0000000   0.1500000), wk =   0.1818182
        k(    5) = (   0.0000000   0.0000000   0.2000000), wk =   0.1818182
        k(    6) = (   0.0000000   0.0000000   0.2500000), wk =   0.1818182
        k(    7) = (   0.0000000   0.0000000   0.3000000), wk =   0.1818182
        k(    8) = (   0.0000000   0.0000000   0.3500000), wk =   0.1818182
        k(    9) = (   0.0000000   0.0000000   0.4000000), wk =   0.1818182
        k(   10) = (   0.0000000   0.0000000   0.4500000), wk =   0.1818182
        k(   11) = (   0.0000000   0.0000000   0.5000000), wk =   0.1818182

     Dense  grid:   221683 G-vectors     FFT dimensions: (  75,  80,  72)

     Dynamical RAM for                 wfc:       0.63 MB

     Dynamical RAM for     wfc (w. buffer):       0.63 MB

     Dynamical RAM for           str. fact:       0.85 MB

     Dynamical RAM for           local pot:       0.00 MB

     Dynamical RAM for          nlocal pot:       0.63 MB

     Dynamical RAM for                qrad:       0.87 MB

     Dynamical RAM for          rho,v,vnew:       2.50 MB

     Dynamical RAM for           G-vectors:       1.80 MB

     Dynamical RAM for          h,s,v(r/c):       0.03 MB

     Dynamical RAM for          <psi|beta>:       0.00 MB

     Dynamical RAM for                 psi:       1.27 MB

     Dynamical RAM for                hpsi:       1.27 MB

     Dynamical RAM for      wfcinit/wfcrot:       1.27 MB

     Estimated static dynamical RAM per process >      10.61 MB

     Estimated max dynamical RAM per process >      13.18 MB

     Estimated total dynamical RAM >     105.44 MB

     The potential is recalculated from file :
     /home/yshubert/code/koopmans/Yannick_tests/simple_water/snapshot_1/init/wannier/TMP/kc_bands.save/charge-density

     Starting wfcs are random

     Band Structure Calculation
     Davidson diagonalization with overlap

     Computing kpt #:     1  of    11
     total cpu time spent up to now is        1.1 secs

     Computing kpt #:     2  of    11
     total cpu time spent up to now is        1.9 secs

     Computing kpt #:     3  of    11
     total cpu time spent up to now is        2.7 secs

     Computing kpt #:     4  of    11
     total cpu time spent up to now is        3.5 secs

     Computing kpt #:     5  of    11
     total cpu time spent up to now is        4.2 secs

     Computing kpt #:     6  of    11
     total cpu time spent up to now is        4.8 secs

     Computing kpt #:     7  of    11
     total cpu time spent up to now is        5.3 secs

     Computing kpt #:     8  of    11
     total cpu time spent up to now is        5.8 secs

     Computing kpt #:     9  of    11
     total cpu time spent up to now is        6.3 secs

     Computing kpt #:    10  of    11
     total cpu time spent up to now is        6.8 secs

     Computing kpt #:    11  of    11
     total cpu time spent up to now is        7.3 secs

     ethr =  6.40E-09,  avg # of iterations = 48.7

     total cpu time spent up to now is        7.3 secs

     End of band structure calculation

          k = 0.0000 0.0000 0.0000 ( 27705 PWs)   bands (ev):

   -24.8244 -12.6406  -8.8688  -6.7720  -1.0778   1.8095   2.1367   2.6332
     2.7591   3.0854   3.1915   4.6335

          k = 0.0000 0.0000 0.0528 ( 27703 PWs)   bands (ev):

   -24.8244 -12.6406  -8.8688  -6.7721  -1.0687   1.7939   2.1394   2.6220
     2.7063   2.9825   3.4097   4.6236

          k = 0.0000 0.0000 0.1056 ( 27719 PWs)   bands (ev):

   -24.8244 -12.6407  -8.8689  -6.7725  -1.0417   1.7350   2.1463   2.5179
     2.6909   2.9668   3.7043   4.5960

          k = 0.0000 0.0000 0.1585 ( 27709 PWs)   bands (ev):

   -24.8244 -12.6408  -8.8689  -6.7731  -0.9973   1.6103   2.1570   2.4348
     2.7261   3.0010   3.9718   4.5706

          k = 0.0000 0.0000 0.2113 ( 27724 PWs)   bands (ev):

   -24.8244 -12.6409  -8.8690  -6.7738  -0.9363   1.4254   2.1781   2.4257
     2.7794   3.0609   4.0909   4.4670

          k = 0.0000 0.0000 0.2641 ( 27700 PWs)   bands (ev):

   -24.8244 -12.6411  -8.8691  -6.7747  -0.8606   1.2123   2.2144   2.4641
     2.8464   3.1412   4.0243   4.2755

          k = 0.0000 0.0000 0.3169 ( 27702 PWs)   bands (ev):

   -24.8244 -12.6412  -8.8692  -6.7755  -0.7728   0.9973   2.2629   2.5279
     2.9235   3.2400   3.8877   4.1006

          k = 0.0000 0.0000 0.3697 ( 27706 PWs)   bands (ev):

   -24.8244 -12.6414  -8.8693  -6.7762  -0.6781   0.7975   2.3173   2.6046
     3.0048   3.3550   3.7403   3.9542

          k = 0.0000 0.0000 0.4225 ( 27742 PWs)   bands (ev):

   -24.8244 -12.6415  -8.8694  -6.7768  -0.5860   0.6277   2.3690   2.6825
     3.0809   3.4792   3.6089   3.8511

          k = 0.0000 0.0000 0.4754 ( 27708 PWs)   bands (ev):

   -24.8244 -12.6415  -8.8694  -6.7772  -0.5134   0.5078   2.4074   2.7451
     3.1379   3.4977   3.6096   3.8119

          k = 0.0000 0.0000 0.5282 ( 27724 PWs)   bands (ev):

   -24.8244 -12.6416  -8.8695  -6.7774  -0.4847   0.4631   2.4218   2.7701
     3.1602   3.4598   3.6615   3.8326

     Writing all to output data dir /home/yshubert/code/koopmans/Yannick_tests/simple_water/snapshot_1/init/wannier/TMP/kc_bands.save/
 
     init_run     :      0.20s CPU      0.29s WALL (       1 calls)
     electrons    :      6.35s CPU      6.97s WALL (       1 calls)

     Called by init_run:
     wfcinit      :      0.00s CPU      0.00s WALL (       1 calls)
     wfcinit:wfcr :      0.17s CPU      0.19s WALL (      11 calls)
     potinit      :      0.02s CPU      0.04s WALL (       1 calls)
     hinit0       :      0.15s CPU      0.21s WALL (       1 calls)

     Called by electrons:
     c_bands      :      6.35s CPU      6.97s WALL (       1 calls)
     v_of_rho     :      0.02s CPU      0.03s WALL (       1 calls)
     v_h          :      0.00s CPU      0.00s WALL (       1 calls)
     v_xc         :      0.02s CPU      0.03s WALL (       1 calls)

     Called by c_bands:
     init_us_2    :      0.00s CPU      0.01s WALL (      11 calls)
     init_us_2:cp :      0.00s CPU      0.01s WALL (      11 calls)
     cegterg      :      6.15s CPU      6.74s WALL (      32 calls)

     Called by sum_band:

     Called by *egterg:
     cdiaghg      :      0.10s CPU      0.11s WALL (     547 calls)
     cegterg:over :      0.35s CPU      0.38s WALL (     536 calls)
     cegterg:upda :      0.14s CPU      0.15s WALL (     536 calls)
     cegterg:last :      0.32s CPU      0.34s WALL (     386 calls)
     h_psi        :      5.10s CPU      5.61s WALL (     579 calls)
     g_psi        :      0.08s CPU      0.08s WALL (     536 calls)

     Called by h_psi:
     h_psi:calbec :      0.19s CPU      0.20s WALL (     579 calls)
     vloc_psi     :      4.79s CPU      5.27s WALL (     579 calls)
     add_vuspsi   :      0.08s CPU      0.08s WALL (     579 calls)

     General routines
     calbec       :      0.19s CPU      0.20s WALL (     579 calls)
     fft          :      0.04s CPU      0.08s WALL (      10 calls)
     fftw         :      4.21s CPU      4.66s WALL (    8838 calls)
     davcio       :      0.01s CPU      0.01s WALL (      22 calls)
 
     Parallel routines
 
     PWSCF        :      6.64s CPU      7.41s WALL

 
   This run was terminated on:  14: 0:39  20Jun2022            

=------------------------------------------------------------------------------=
   JOB DONE.
=------------------------------------------------------------------------------=
