
     Program PWSCF v.7.0 starts on 21Jun2022 at 21:58:33 

     This program is part of the open-source Quantum ESPRESSO suite
     for quantum simulation of materials; please cite
         "P. Giannozzi et al., J. Phys.:Condens. Matter 21 395502 (2009);
         "P. Giannozzi et al., J. Phys.:Condens. Matter 29 465901 (2017);
         "P. Giannozzi et al., J. Chem. Phys. 152 154105 (2020);
          URL http://www.quantum-espresso.org", 
     in publications or presentations arising from this work. More details at
     http://www.quantum-espresso.org/quote

     Parallel version (MPI), running on     8 processors

     MPI processes distributed on     1 nodes
     25856 MiB available memory on the printing compute node when the environment starts
 
     Reading input from scf.pwi
Warning: card &CELL ignored
Warning: card / ignored

     Current dimensions of program PWSCF are:
     Max number of different atomic species (ntypx) = 10
     Max number of k-points (npk) =  40000
     Max angular momentum in pseudopotentials (lmaxx) =  4
 
     R & G space division:  proc/nbgrp/npool/nimage =       8
     Subspace diagonalization in iterative solution of the eigenvalue problem:
     a serial algorithm will be used

 
     Parallelization info
     --------------------
     sticks:   dense  smooth     PW     G-vecs:    dense   smooth      PW
     Min         582     582    144                27708    27708    3460
     Max         583     583    145                27712    27712    3465
     Sum        4657    4657   1159               221683   221683   27705
 
     Using Slab Decomposition
 


     bravais-lattice index     =            0
     lattice parameter (alat)  =      12.4850  a.u.
     unit-cell volume          =    1922.0974 (a.u.)^3
     number of atoms/cell      =            3
     number of atomic types    =            2
     number of electrons       =         8.00
     number of Kohn-Sham states=            4
     kinetic-energy cutoff     =      90.0000  Ry
     charge density cutoff     =     360.0000  Ry
     scf convergence threshold =      5.1E-07
     mixing beta               =       0.7000
     number of iterations used =            8  plain     mixing
     Exchange-correlation= PBE
                           (   1   4   3   4   0   0   0)

     celldm(1)=  12.485043  celldm(2)=   0.000000  celldm(3)=   0.000000
     celldm(4)=   0.000000  celldm(5)=   0.000000  celldm(6)=   0.000000

     crystal axes: (cart. coord. in units of alat)
               a(1) = (   1.000000   0.000000   0.000000 )  
               a(2) = (   0.000000   1.043304   0.000000 )  
               a(3) = (   0.000000   0.000000   0.946661 )  

     reciprocal axes: (cart. coord. in units 2 pi/alat)
               b(1) = (  1.000000  0.000000  0.000000 )  
               b(2) = (  0.000000  0.958494  0.000000 )  
               b(3) = (  0.000000  0.000000  1.056344 )  


     PseudoPot. # 1 for O  read from file:
     /home/yshubert/code/koopmans/pseudos/sg15_v1.2/pbe/O_ONCV_PBE-1.2_wfc.upf
     MD5 check sum: a38186c13bb8e01c3f745645973e2ab0
     Pseudo is Norm-conserving, Zval =  6.0
     Generated using ONCVPSP code by D. R. Hamann
     Using radial grid of  934 points,  4 beta functions with: 
                l(1) =   0
                l(2) =   0
                l(3) =   1
                l(4) =   1

     PseudoPot. # 2 for H  read from file:
     /home/yshubert/code/koopmans/pseudos/sg15_v1.2/pbe/H_ONCV_PBE-1.2_wfc.upf
     MD5 check sum: 3dcd10ef2ad1c5ae8459b1bfbe134fe5
     Pseudo is Norm-conserving, Zval =  1.0
     Generated using ONCVPSP code by D. R. Hamann
     Using radial grid of 1160 points,  2 beta functions with: 
                l(1) =   0
                l(2) =   0

     atomic species   valence    mass     pseudopotential
        O              6.00    15.99900     O ( 1.00)
        H              1.00     1.00800     H ( 1.00)

     No symmetry found


                                    s                        frac. trans.

      isym =  1     identity                                     

 cryst.   s( 1) = (     1          0          0      )
                  (     0          1          0      )
                  (     0          0          1      )

 cart.    s( 1) = (  1.0000000  0.0000000  0.0000000 )
                  (  0.0000000  1.0000000  0.0000000 )
                  (  0.0000000  0.0000000  1.0000000 )


   Cartesian axes

     site n.     atom                  positions (alat units)
         1           O   tau(   1) = (   0.4540776   0.4721121   0.5083323  )
         2           H   tau(   2) = (   0.4960647   0.6072607   0.5468381  )
         3           H   tau(   3) = (   0.5459224   0.4360432   0.3998229  )

   Crystallographic axes

     site n.     atom                  positions (cryst. coord.)
         1           O   tau(   1) = (  0.4540776  0.4525164  0.5369740  )
         2           H   tau(   2) = (  0.4960647  0.5820554  0.5776493  )
         3           H   tau(   3) = (  0.5459224  0.4179446  0.4223507  )

     number of k points=     1
                       cart. coord. in units 2pi/alat
        k(    1) = (   0.0000000   0.0000000   0.0000000), wk =   2.0000000

                       cryst. coord.
        k(    1) = (   0.0000000   0.0000000   0.0000000), wk =   2.0000000

     Dense  grid:   221683 G-vectors     FFT dimensions: (  75,  80,  72)

     Dynamical RAM for                 wfc:       0.21 MB

     Dynamical RAM for     wfc (w. buffer):       0.21 MB

     Dynamical RAM for           str. fact:       0.85 MB

     Dynamical RAM for           local pot:       0.00 MB

     Dynamical RAM for          nlocal pot:       0.63 MB

     Dynamical RAM for                qrad:       0.87 MB

     Dynamical RAM for          rho,v,vnew:       2.50 MB

     Dynamical RAM for               rhoin:       0.83 MB

     Dynamical RAM for            rho*nmix:       6.77 MB

     Dynamical RAM for           G-vectors:       1.80 MB

     Dynamical RAM for          h,s,v(r/c):       0.00 MB

     Dynamical RAM for          <psi|beta>:       0.00 MB

     Dynamical RAM for                 psi:       0.42 MB

     Dynamical RAM for                hpsi:       0.42 MB

     Dynamical RAM for      wfcinit/wfcrot:       0.64 MB

     Estimated static dynamical RAM per process >      11.03 MB

     Estimated max dynamical RAM per process >      18.64 MB

     Estimated total dynamical RAM >     149.13 MB

     Initial potential from superposition of free atoms

     starting charge       8.0000, renormalised to       8.0000

     negative rho (up, down):  1.538E-08 0.000E+00
     Starting wfcs are    6 randomized atomic wfcs

     total cpu time spent up to now is        0.7 secs

     Self-consistent Calculation

     iteration #  1     ecut=    90.00 Ry     beta= 0.70
     Davidson diagonalization with overlap

---- Real-time Memory Report at c_bands before calling an iterative solver
            90 MiB given to the printing process from OS
             0 MiB allocation reported by mallinfo(arena+hblkhd)
         25691 MiB available memory on the node where the printing process lives
------------------
     ethr =  1.00E-02,  avg # of iterations =  2.0

     total cpu time spent up to now is        0.7 secs

     total energy              =     -34.11423616 Ry
     estimated scf accuracy    <       0.47895008 Ry

     iteration #  2     ecut=    90.00 Ry     beta= 0.70
     Davidson diagonalization with overlap

---- Real-time Memory Report at c_bands before calling an iterative solver
            99 MiB given to the printing process from OS
             0 MiB allocation reported by mallinfo(arena+hblkhd)
         25622 MiB available memory on the node where the printing process lives
------------------
     ethr =  5.99E-03,  avg # of iterations =  2.0

     total cpu time spent up to now is        0.8 secs

     total energy              =     -34.25114902 Ry
     estimated scf accuracy    <       0.39567961 Ry

     iteration #  3     ecut=    90.00 Ry     beta= 0.70
     Davidson diagonalization with overlap

---- Real-time Memory Report at c_bands before calling an iterative solver
           101 MiB given to the printing process from OS
             0 MiB allocation reported by mallinfo(arena+hblkhd)
         25615 MiB available memory on the node where the printing process lives
------------------
     ethr =  4.95E-03,  avg # of iterations =  2.0

     negative rho (up, down):  8.145E-06 0.000E+00

     total cpu time spent up to now is        0.8 secs

     total energy              =     -34.31357990 Ry
     estimated scf accuracy    <       0.00691127 Ry

     iteration #  4     ecut=    90.00 Ry     beta= 0.70
     Davidson diagonalization with overlap

---- Real-time Memory Report at c_bands before calling an iterative solver
           102 MiB given to the printing process from OS
             0 MiB allocation reported by mallinfo(arena+hblkhd)
         25608 MiB available memory on the node where the printing process lives
------------------
     ethr =  8.64E-05,  avg # of iterations =  3.0

     total cpu time spent up to now is        0.9 secs

     total energy              =     -34.31715136 Ry
     estimated scf accuracy    <       0.00757804 Ry

     iteration #  5     ecut=    90.00 Ry     beta= 0.70
     Davidson diagonalization with overlap

---- Real-time Memory Report at c_bands before calling an iterative solver
           103 MiB given to the printing process from OS
             0 MiB allocation reported by mallinfo(arena+hblkhd)
         25600 MiB available memory on the node where the printing process lives
------------------
     ethr =  8.64E-05,  avg # of iterations =  1.0

     total cpu time spent up to now is        1.0 secs

     total energy              =     -34.31721614 Ry
     estimated scf accuracy    <       0.00146663 Ry

     iteration #  6     ecut=    90.00 Ry     beta= 0.70
     Davidson diagonalization with overlap

---- Real-time Memory Report at c_bands before calling an iterative solver
           104 MiB given to the printing process from OS
             0 MiB allocation reported by mallinfo(arena+hblkhd)
         25592 MiB available memory on the node where the printing process lives
------------------
     ethr =  1.83E-05,  avg # of iterations =  2.0

     total cpu time spent up to now is        1.0 secs

     total energy              =     -34.31730375 Ry
     estimated scf accuracy    <       0.00031857 Ry

     iteration #  7     ecut=    90.00 Ry     beta= 0.70
     Davidson diagonalization with overlap

---- Real-time Memory Report at c_bands before calling an iterative solver
           105 MiB given to the printing process from OS
             0 MiB allocation reported by mallinfo(arena+hblkhd)
         25583 MiB available memory on the node where the printing process lives
------------------
     ethr =  3.98E-06,  avg # of iterations =  2.0

     total cpu time spent up to now is        1.1 secs

     total energy              =     -34.31735944 Ry
     estimated scf accuracy    <       0.00001680 Ry

     iteration #  8     ecut=    90.00 Ry     beta= 0.70
     Davidson diagonalization with overlap

---- Real-time Memory Report at c_bands before calling an iterative solver
           106 MiB given to the printing process from OS
             0 MiB allocation reported by mallinfo(arena+hblkhd)
         25573 MiB available memory on the node where the printing process lives
------------------
     ethr =  2.10E-07,  avg # of iterations =  2.0

     total cpu time spent up to now is        1.2 secs

     total energy              =     -34.31736349 Ry
     estimated scf accuracy    <       0.00000082 Ry

     iteration #  9     ecut=    90.00 Ry     beta= 0.70
     Davidson diagonalization with overlap

---- Real-time Memory Report at c_bands before calling an iterative solver
           107 MiB given to the printing process from OS
             0 MiB allocation reported by mallinfo(arena+hblkhd)
         25562 MiB available memory on the node where the printing process lives
------------------
     ethr =  1.03E-08,  avg # of iterations =  3.0

     total cpu time spent up to now is        1.2 secs

     total energy              =     -34.31736402 Ry
     estimated scf accuracy    <       0.00000060 Ry

     iteration # 10     ecut=    90.00 Ry     beta= 0.70
     Davidson diagonalization with overlap

---- Real-time Memory Report at c_bands before calling an iterative solver
           108 MiB given to the printing process from OS
             0 MiB allocation reported by mallinfo(arena+hblkhd)
         25552 MiB available memory on the node where the printing process lives
------------------
     ethr =  7.54E-09,  avg # of iterations =  2.0

     total cpu time spent up to now is        1.3 secs

     End of self-consistent calculation

          k = 0.0000 0.0000 0.0000 ( 27705 PWs)   bands (ev):

   -24.8240 -12.6415  -8.8679  -6.7703

     occupation numbers 
     1.0000   1.0000   1.0000   1.0000

     highest occupied level (ev):    -6.7703

!    total energy              =     -34.31736411 Ry
     estimated scf accuracy    <          5.8E-09 Ry

     The total energy is the sum of the following terms:
     one-electron contribution =     -53.56233197 Ry
     hartree contribution      =      28.34248673 Ry
     xc contribution           =      -8.43011648 Ry
     ewald contribution        =      -0.66740240 Ry

     convergence has been achieved in  10 iterations

     Writing all to output data dir /home/yshubert/code/koopmans/Yannick_tests/simple_water/snapshot_1/init/wannier/TMP/kc.save/
 
     init_run     :      0.57s CPU      0.62s WALL (       1 calls)
     electrons    :      0.63s CPU      0.67s WALL (       1 calls)

     Called by init_run:
     wfcinit      :      0.01s CPU      0.01s WALL (       1 calls)
     wfcinit:atom :      0.00s CPU      0.00s WALL (       1 calls)
     wfcinit:wfcr :      0.01s CPU      0.01s WALL (       1 calls)
     potinit      :      0.26s CPU      0.28s WALL (       1 calls)
     hinit0       :      0.25s CPU      0.28s WALL (       1 calls)

     Called by electrons:
     c_bands      :      0.22s CPU      0.22s WALL (      10 calls)
     sum_band     :      0.07s CPU      0.07s WALL (      10 calls)
     v_of_rho     :      0.27s CPU      0.29s WALL (      11 calls)
     v_h          :      0.02s CPU      0.02s WALL (      11 calls)
     v_xc         :      0.25s CPU      0.27s WALL (      11 calls)
     mix_rho      :      0.09s CPU      0.09s WALL (      10 calls)

     Called by c_bands:
     init_us_2    :      0.01s CPU      0.01s WALL (      21 calls)
     init_us_2:cp :      0.01s CPU      0.01s WALL (      21 calls)
     cegterg      :      0.20s CPU      0.20s WALL (      10 calls)

     Called by sum_band:
     sum_band:wei :      0.00s CPU      0.00s WALL (      10 calls)
     sum_band:loo :      0.04s CPU      0.04s WALL (      10 calls)
     sum_band:buf :      0.00s CPU      0.00s WALL (      10 calls)
     sum_band:ini :      0.01s CPU      0.01s WALL (      10 calls)

     Called by *egterg:
     cdiaghg      :      0.00s CPU      0.00s WALL (      31 calls)
     cegterg:over :      0.00s CPU      0.00s WALL (      21 calls)
     cegterg:upda :      0.00s CPU      0.00s WALL (      21 calls)
     cegterg:last :      0.00s CPU      0.00s WALL (      21 calls)
     h_psi        :      0.19s CPU      0.19s WALL (      32 calls)
     g_psi        :      0.00s CPU      0.00s WALL (      21 calls)

     Called by h_psi:
     h_psi:calbec :      0.01s CPU      0.01s WALL (      32 calls)
     vloc_psi     :      0.17s CPU      0.18s WALL (      32 calls)
     add_vuspsi   :      0.01s CPU      0.01s WALL (      32 calls)

     General routines
     calbec       :      0.01s CPU      0.01s WALL (      32 calls)
     fft          :      0.15s CPU      0.19s WALL (     109 calls)
     ffts         :      0.01s CPU      0.02s WALL (      10 calls)
     fftw         :      0.18s CPU      0.18s WALL (     284 calls)
 
     Parallel routines
 
     PWSCF        :      1.24s CPU      1.34s WALL

 
   This run was terminated on:  21:58:35  21Jun2022            

=------------------------------------------------------------------------------=
   JOB DONE.
=------------------------------------------------------------------------------=
