
     Program PWSCF v.7.0 starts on 17Jun2022 at  9:35: 7 

     This program is part of the open-source Quantum ESPRESSO suite
     for quantum simulation of materials; please cite
         "P. Giannozzi et al., J. Phys.:Condens. Matter 21 395502 (2009);
         "P. Giannozzi et al., J. Phys.:Condens. Matter 29 465901 (2017);
         "P. Giannozzi et al., J. Chem. Phys. 152 154105 (2020);
          URL http://www.quantum-espresso.org", 
     in publications or presentations arising from this work. More details at
     http://www.quantum-espresso.org/quote

     Parallel version (MPI), running on     8 processors

     MPI processes distributed on     1 nodes
     2979 MiB available memory on the printing compute node when the environment starts
 
     Reading input from scf.pwi
Warning: card &CELL ignored
Warning: card / ignored

     Current dimensions of program PWSCF are:
     Max number of different atomic species (ntypx) = 10
     Max number of k-points (npk) =  40000
     Max angular momentum in pseudopotentials (lmaxx) =  4
 
     R & G space division:  proc/nbgrp/npool/nimage =       8
     Subspace diagonalization in iterative solution of the eigenvalue problem:
     a serial algorithm will be used

 
     Parallelization info
     --------------------
     sticks:   dense  smooth     PW     G-vecs:    dense   smooth      PW
     Min         324     324     81                11471    11471    1432
     Max         326     326     83                11472    11472    1434
     Sum        2595    2595    653                91775    91775   11463
 
     Using Slab Decomposition
 


     bravais-lattice index     =            0
     lattice parameter (alat)  =      12.4850  a.u.
     unit-cell volume          =    1922.0974 (a.u.)^3
     number of atoms/cell      =            3
     number of atomic types    =            2
     number of electrons       =         8.00
     number of Kohn-Sham states=            4
     kinetic-energy cutoff     =      50.0000  Ry
     charge density cutoff     =     200.0000  Ry
     scf convergence threshold =      5.1E-07
     mixing beta               =       0.7000
     number of iterations used =            8  plain     mixing
     Exchange-correlation= PBE
                           (   1   4   3   4   0   0   0)

     celldm(1)=  12.485043  celldm(2)=   0.000000  celldm(3)=   0.000000
     celldm(4)=   0.000000  celldm(5)=   0.000000  celldm(6)=   0.000000

     crystal axes: (cart. coord. in units of alat)
               a(1) = (   1.000000   0.000000   0.000000 )  
               a(2) = (   0.000000   1.043304   0.000000 )  
               a(3) = (   0.000000   0.000000   0.946661 )  

     reciprocal axes: (cart. coord. in units 2 pi/alat)
               b(1) = (  1.000000  0.000000  0.000000 )  
               b(2) = (  0.000000  0.958494  0.000000 )  
               b(3) = (  0.000000  0.000000  1.056344 )  


     PseudoPot. # 1 for O  read from file:
     /home/yshubert/code/koopmans/pseudos/sg15_v1.2/pbe/O_ONCV_PBE-1.2.upf
     MD5 check sum: e36c48deb68f4e355fffe4602be2c42c
     Pseudo is Norm-conserving, Zval =  6.0
     Generated using ONCVPSP code by D. R. Hamann
     Using radial grid of  602 points,  4 beta functions with: 
                l(1) =   0
                l(2) =   0
                l(3) =   1
                l(4) =   1

     PseudoPot. # 2 for H  read from file:
     /home/yshubert/code/koopmans/pseudos/sg15_v1.2/pbe/H_ONCV_PBE-1.2.upf
     MD5 check sum: bf21e08b90ac4ce7d0149ac4e8138190
     Pseudo is Norm-conserving, Zval =  1.0
     Generated using ONCVPSP code by D. R. Hamann
     Using radial grid of  602 points,  2 beta functions with: 
                l(1) =   0
                l(2) =   0

     atomic species   valence    mass     pseudopotential
        O              6.00    15.99900     O ( 1.00)
        H              1.00     1.00800     H ( 1.00)

     No symmetry found


                                    s                        frac. trans.

      isym =  1     identity                                     

 cryst.   s( 1) = (     1          0          0      )
                  (     0          1          0      )
                  (     0          0          1      )

 cart.    s( 1) = (  1.0000000  0.0000000  0.0000000 )
                  (  0.0000000  1.0000000  0.0000000 )
                  (  0.0000000  0.0000000  1.0000000 )


   Cartesian axes

     site n.     atom                  positions (alat units)
         1           O   tau(   1) = (   0.4540776   0.4721121   0.5083323  )
         2           H   tau(   2) = (   0.4960647   0.6072607   0.5468381  )
         3           H   tau(   3) = (   0.5459224   0.4360432   0.3998229  )

   Crystallographic axes

     site n.     atom                  positions (cryst. coord.)
         1           O   tau(   1) = (  0.4540776  0.4525164  0.5369740  )
         2           H   tau(   2) = (  0.4960647  0.5820554  0.5776493  )
         3           H   tau(   3) = (  0.5459224  0.4179446  0.4223507  )

     number of k points=     1
                       cart. coord. in units 2pi/alat
        k(    1) = (   0.0000000   0.0000000   0.0000000), wk =   2.0000000

                       cryst. coord.
        k(    1) = (   0.0000000   0.0000000   0.0000000), wk =   2.0000000

     Dense  grid:    91775 G-vectors     FFT dimensions: (  60,  60,  54)

     Dynamical RAM for                 wfc:       0.09 MB

     Dynamical RAM for     wfc (w. buffer):       0.09 MB

     Dynamical RAM for           str. fact:       0.35 MB

     Dynamical RAM for           local pot:       0.00 MB

     Dynamical RAM for          nlocal pot:       0.26 MB

     Dynamical RAM for                qrad:       0.65 MB

     Dynamical RAM for          rho,v,vnew:       1.10 MB

     Dynamical RAM for               rhoin:       0.37 MB

     Dynamical RAM for            rho*nmix:       2.80 MB

     Dynamical RAM for           G-vectors:       0.74 MB

     Dynamical RAM for          h,s,v(r/c):       0.00 MB

     Dynamical RAM for          <psi|beta>:       0.00 MB

     Dynamical RAM for                 psi:       0.18 MB

     Dynamical RAM for                hpsi:       0.18 MB

     Dynamical RAM for      wfcinit/wfcrot:       0.18 MB

     Estimated static dynamical RAM per process >       5.05 MB

     Estimated max dynamical RAM per process >       8.20 MB

     Estimated total dynamical RAM >      65.63 MB

     Initial potential from superposition of free atoms

     starting charge       7.9948, renormalised to       8.0000

     negative rho (up, down):  1.593E-03 0.000E+00
     Starting wfcs are random

     total cpu time spent up to now is        1.7 secs

     Self-consistent Calculation

     iteration #  1     ecut=    50.00 Ry     beta= 0.70
     Davidson diagonalization with overlap

---- Real-time Memory Report at c_bands before calling an iterative solver
            80 MiB given to the printing process from OS
             0 MiB allocation reported by mallinfo(arena+hblkhd)
         11276 MiB available memory on the node where the printing process lives
------------------
     ethr =  1.00E-02,  avg # of iterations = 11.0

     negative rho (up, down):  3.469E-04 0.000E+00

     total cpu time spent up to now is        1.8 secs

     total energy              =     -34.11597465 Ry
     estimated scf accuracy    <       0.34921662 Ry

     iteration #  2     ecut=    50.00 Ry     beta= 0.70
     Davidson diagonalization with overlap

---- Real-time Memory Report at c_bands before calling an iterative solver
            85 MiB given to the printing process from OS
             0 MiB allocation reported by mallinfo(arena+hblkhd)
         11243 MiB available memory on the node where the printing process lives
------------------
     ethr =  4.37E-03,  avg # of iterations =  2.0

     negative rho (up, down):  1.333E-04 0.000E+00

     total cpu time spent up to now is        1.8 secs

     total energy              =     -34.20288782 Ry
     estimated scf accuracy    <       0.18659167 Ry

     iteration #  3     ecut=    50.00 Ry     beta= 0.70
     Davidson diagonalization with overlap

---- Real-time Memory Report at c_bands before calling an iterative solver
            86 MiB given to the printing process from OS
             0 MiB allocation reported by mallinfo(arena+hblkhd)
         11243 MiB available memory on the node where the printing process lives
------------------
     ethr =  2.33E-03,  avg # of iterations =  2.0

     negative rho (up, down):  3.427E-07 0.000E+00

     total cpu time spent up to now is        1.8 secs

     total energy              =     -34.23649258 Ry
     estimated scf accuracy    <       0.00246382 Ry

     iteration #  4     ecut=    50.00 Ry     beta= 0.70
     Davidson diagonalization with overlap

---- Real-time Memory Report at c_bands before calling an iterative solver
            86 MiB given to the printing process from OS
             0 MiB allocation reported by mallinfo(arena+hblkhd)
         11239 MiB available memory on the node where the printing process lives
------------------
     ethr =  3.08E-05,  avg # of iterations =  3.0

     total cpu time spent up to now is        1.9 secs

     total energy              =     -34.23751375 Ry
     estimated scf accuracy    <       0.00145120 Ry

     iteration #  5     ecut=    50.00 Ry     beta= 0.70
     Davidson diagonalization with overlap

---- Real-time Memory Report at c_bands before calling an iterative solver
            87 MiB given to the printing process from OS
             0 MiB allocation reported by mallinfo(arena+hblkhd)
         11236 MiB available memory on the node where the printing process lives
------------------
     ethr =  1.81E-05,  avg # of iterations =  1.0

     total cpu time spent up to now is        1.9 secs

     total energy              =     -34.23731660 Ry
     estimated scf accuracy    <       0.00047425 Ry

     iteration #  6     ecut=    50.00 Ry     beta= 0.70
     Davidson diagonalization with overlap

---- Real-time Memory Report at c_bands before calling an iterative solver
            87 MiB given to the printing process from OS
             0 MiB allocation reported by mallinfo(arena+hblkhd)
         11235 MiB available memory on the node where the printing process lives
------------------
     ethr =  5.93E-06,  avg # of iterations =  2.0

     total cpu time spent up to now is        1.9 secs

     total energy              =     -34.23745234 Ry
     estimated scf accuracy    <       0.00003230 Ry

     iteration #  7     ecut=    50.00 Ry     beta= 0.70
     Davidson diagonalization with overlap

---- Real-time Memory Report at c_bands before calling an iterative solver
            88 MiB given to the printing process from OS
             0 MiB allocation reported by mallinfo(arena+hblkhd)
         11231 MiB available memory on the node where the printing process lives
------------------
     ethr =  4.04E-07,  avg # of iterations =  2.0

     total cpu time spent up to now is        2.0 secs

     End of self-consistent calculation

          k = 0.0000 0.0000 0.0000 ( 11463 PWs)   bands (ev):

   -24.9706 -12.6741  -8.9142  -6.7762

     occupation numbers 
     1.0000   1.0000   1.0000   1.0000

     highest occupied level (ev):    -6.7762

!    total energy              =     -34.23745893 Ry
     estimated scf accuracy    <       0.00000024 Ry

     The total energy is the sum of the following terms:
     one-electron contribution =     -53.37991717 Ry
     hartree contribution      =      28.22315665 Ry
     xc contribution           =      -8.41329597 Ry
     ewald contribution        =      -0.66740244 Ry

     convergence has been achieved in   7 iterations

     Writing all to output data dir /home/yshubert/code/koopmans/Yannick_tests/simple_water/snapshot_1/init/wannier/TMP/kc.save/
 
     init_run     :      0.15s CPU      1.22s WALL (       1 calls)
     electrons    :      0.21s CPU      0.27s WALL (       1 calls)

     Called by init_run:
     wfcinit      :      0.01s CPU      0.50s WALL (       1 calls)
     wfcinit:wfcr :      0.01s CPU      0.50s WALL (       1 calls)
     potinit      :      0.08s CPU      0.13s WALL (       1 calls)
     hinit0       :      0.05s CPU      0.56s WALL (       1 calls)

     Called by electrons:
     c_bands      :      0.09s CPU      0.11s WALL (       7 calls)
     sum_band     :      0.02s CPU      0.02s WALL (       7 calls)
     v_of_rho     :      0.09s CPU      0.15s WALL (       8 calls)
     v_h          :      0.01s CPU      0.01s WALL (       8 calls)
     v_xc         :      0.08s CPU      0.14s WALL (       8 calls)
     mix_rho      :      0.02s CPU      0.05s WALL (       7 calls)

     Called by c_bands:
     init_us_2    :      0.00s CPU      0.00s WALL (      15 calls)
     init_us_2:cp :      0.00s CPU      0.00s WALL (      15 calls)
     cegterg      :      0.08s CPU      0.10s WALL (       7 calls)

     Called by sum_band:
     sum_band:wei :      0.00s CPU      0.00s WALL (       7 calls)
     sum_band:loo :      0.01s CPU      0.01s WALL (       7 calls)
     sum_band:buf :      0.00s CPU      0.00s WALL (       7 calls)
     sum_band:ini :      0.00s CPU      0.00s WALL (       7 calls)

     Called by *egterg:
     cdiaghg      :      0.00s CPU      0.36s WALL (      30 calls)
     cegterg:over :      0.00s CPU      0.00s WALL (      23 calls)
     cegterg:upda :      0.00s CPU      0.00s WALL (      23 calls)
     cegterg:last :      0.00s CPU      0.00s WALL (      22 calls)
     h_psi        :      0.08s CPU      0.18s WALL (      31 calls)
     g_psi        :      0.00s CPU      0.00s WALL (      23 calls)

     Called by h_psi:
     h_psi:calbec :      0.00s CPU      0.09s WALL (      31 calls)
     vloc_psi     :      0.07s CPU      0.08s WALL (      31 calls)
     add_vuspsi   :      0.00s CPU      0.00s WALL (      31 calls)

     General routines
     calbec       :      0.00s CPU      0.09s WALL (      31 calls)
     fft          :      0.05s CPU      0.61s WALL (      79 calls)
     ffts         :      0.00s CPU      0.00s WALL (       7 calls)
     fftw         :      0.07s CPU      0.08s WALL (     254 calls)
 
     Parallel routines
 
     PWSCF        :      0.39s CPU      1.97s WALL

 
   This run was terminated on:   9:35: 9  17Jun2022            

=------------------------------------------------------------------------------=
   JOB DONE.
=------------------------------------------------------------------------------=
