File written on 15Jun2022 at 21:12:48 

calc_only_A  :  F

begin real_lattice
   6.6068000   0.0000000   0.0000000
   0.0000000   6.8929000   0.0000000
   0.0000000   0.0000000   6.2544000
end real_lattice

begin recip_lattice
   0.9510179   0.0000000   0.0000000
   0.0000000   0.9115445   0.0000000
   0.0000000   0.0000000   1.0046024
end recip_lattice

begin kpoints
     1
    0.00000000    0.00000000    0.00000000
end kpoints

begin projections
     4
   0.45408    0.45252    0.53697    -3  1  1
    0.0000000  0.0000000  1.0000000   1.0000000  0.0000000  0.0000000    1.00
   0.45408    0.45252    0.53697    -3  2  1
    0.0000000  0.0000000  1.0000000   1.0000000  0.0000000  0.0000000    1.00
   0.45408    0.45252    0.53697    -3  3  1
    0.0000000  0.0000000  1.0000000   1.0000000  0.0000000  0.0000000    1.00
   0.45408    0.45252    0.53697    -3  4  1
    0.0000000  0.0000000  1.0000000   1.0000000  0.0000000  0.0000000    1.00
end projections

begin nnkpts
   6
     1     1      0   1   0
     1     1      0  -1   0
     1     1      1   0   0
     1     1     -1   0   0
     1     1      0   0   1
     1     1      0   0  -1
end nnkpts

begin exclude_bands
   8
   5
   6
   7
   8
   9
  10
  11
  12
end exclude_bands
