## written on 17Jun2022 at 11:19:08  with use_ws_distance=.true.
    0    0    0    1    1
    1
    0    0    0
    0    0    0    1    2
    1
    1   -1   -1
    0    0    0    1    3
    1
    0   -1    0
    0    0    0    1    4
    1
    0   -1    0
    0    0    0    2    1
    1
   -1    1    1
    0    0    0    2    2
    1
    0    0    0
    0    0    0    2    3
    1
   -1    0    1
    0    0    0    2    4
    1
   -1    0    1
    0    0    0    3    1
    1
    0    1    0
    0    0    0    3    2
    1
    1    0   -1
    0    0    0    3    3
    1
    0    0    0
    0    0    0    3    4
    1
    0    0    0
    0    0    0    4    1
    1
    0    1    0
    0    0    0    4    2
    1
    1    0   -1
    0    0    0    4    3
    1
    0    0    0
    0    0    0    4    4
    1
    0    0    0
