 
             +---------------------------------------------------+
             |                                                   |
             |                   WANNIER90                       |
             |                                                   |
             +---------------------------------------------------+
             |                                                   |
             |        Welcome to the Maximally-Localized         |
             |        Generalized Wannier Functions code         |
             |            http://www.wannier.org                 |
             |                                                   |
             |                                                   |
             |  Wannier90 Developer Group:                       |
             |    Giovanni Pizzi    (EPFL)                       |
             |    Valerio Vitale    (Cambridge)                  |
             |    David Vanderbilt  (Rutgers University)         |
             |    Nicola Marzari    (EPFL)                       |
             |    Ivo Souza         (Universidad del Pais Vasco) |
             |    Arash A. Mostofi  (Imperial College London)    |
             |    Jonathan R. Yates (University of Oxford)       |
             |                                                   |
             |  For the full list of Wannier90 3.x authors,      |
             |  please check the code documentation and the      |
             |  README on the GitHub page of the code            |
             |                                                   |
             |                                                   |
             |  Please cite                                      |
             |                                                   |
             |  [ref] "Wannier90 as a community code:            |
             |        new features and applications",            |
             |        G. Pizzi et al., J. Phys. Cond. Matt. 32,  |
             |        165902 (2020).                             |
             |        http://doi.org/10.1088/1361-648X/ab51ff    |
             |                                                   |
             |  in any publications arising from the use of      |
             |  this code. For the method please cite            |
             |                                                   |
             |  [ref] "Maximally Localized Generalised Wannier   |
             |         Functions for Composite Energy Bands"     |
             |         N. Marzari and D. Vanderbilt              |
             |         Phys. Rev. B 56 12847 (1997)              |
             |                                                   |
             |  [ref] "Maximally Localized Wannier Functions     |
             |         for Entangled Energy Bands"               |
             |         I. Souza, N. Marzari and D. Vanderbilt    |
             |         Phys. Rev. B 65 035109 (2001)             |
             |                                                   |
             |                                                   |
             | Copyright (c) 1996-2020                           |
             |        The Wannier90 Developer Group and          |
             |        individual contributors                    |
             |                                                   |
             |      Release: 3.1.0        5th March    2020      |
             |                                                   |
             | This program is free software; you can            |
             | redistribute it and/or modify it under the terms  |
             | of the GNU General Public License as published by |
             | the Free Software Foundation; either version 2 of |
             | the License, or (at your option) any later version|
             |                                                   |
             | This program is distributed in the hope that it   |
             | will be useful, but WITHOUT ANY WARRANTY; without |
             | even the implied warranty of MERCHANTABILITY or   |
             | FITNESS FOR A PARTICULAR PURPOSE. See the GNU     |
             | General Public License for more details.          |
             |                                                   |
             | You should have received a copy of the GNU General|
             | Public License along with this program; if not,   |
             | write to the Free Software Foundation, Inc.,      |
             | 675 Mass Ave, Cambridge, MA 02139, USA.           |
             |                                                   |
             +---------------------------------------------------+
             |    Execution started on 20Jun2022 at 14:00:30     |
             +---------------------------------------------------+
 
 ******************************************************************************
 * -> Using CODATA 2006 constant values                                       *
 *    (http://physics.nist.gov/cuu/Constants/index.html)                      *
 * -> Using Bohr value from CODATA                                            *
 ******************************************************************************
 

 Running in serial (with serial executable)
 
                                    ------
                                    SYSTEM
                                    ------
 
                              Lattice Vectors (Ang)
                    a_1     6.606800   0.000000   0.000000
                    a_2     0.000000   6.892900   0.000000
                    a_3     0.000000   0.000000   6.254400
 
                   Unit Cell Volume:     284.82545  (Ang^3)
 
                        Reciprocal-Space Vectors (Ang^-1)
                    b_1     0.951018   0.000000   0.000000
                    b_2     0.000000   0.911545   0.000000
                    b_3     0.000000   0.000000   1.004602
  
 *----------------------------------------------------------------------------*
 |   Site       Fractional Coordinate          Cartesian Coordinate (Ang)     |
 +----------------------------------------------------------------------------+
 | O    1   0.45408   0.45252   0.53697   |    3.00000   3.11915   3.35845    |
 | H    1   0.49606   0.58206   0.57765   |    3.27740   4.01205   3.61285    |
 | H    2   0.54592   0.41794   0.42235   |    3.60680   2.88085   2.64155    |
 *----------------------------------------------------------------------------*
                                ------------
                                K-POINT GRID
                                ------------
  
             Grid size =  1 x  1 x  1      Total points =    1
  
  
 *---------------------------------- MAIN ------------------------------------*
 |  Number of Wannier Functions               :                 4             |
 |  Number of Objective Wannier Functions     :                 4             |
 |  Number of input Bloch states              :                 4             |
 |  Output verbosity (1=low, 5=high)          :                 1             |
 |  Timing Level (1=low, 5=high)              :                 1             |
 |  Optimisation (0=memory, 3=speed)          :                 3             |
 |  Length Unit                               :               Ang             |
 |  Post-processing setup (write *.nnkp)      :                 F             |
 |  Using Gamma-only branch of algorithms     :                 F             |
 *----------------------------------------------------------------------------*
 *------------------------------- WANNIERISE ---------------------------------*
 |  Total number of iterations                :             10000             |
 |  Number of CG steps before reset           :                 5             |
 |  Trial step length for line search         :             2.000             |
 |  Convergence tolerence                     :         0.100E-09             |
 |  Convergence window                        :                 5             |
 |  Iterations between writing output         :                 1             |
 |  Iterations between backing up to disk     :               100             |
 |  Write r^2_nm to file                      :                 F             |
 |  Write xyz WF centres to file              :                 F             |
 |  Write on-site energies <0n|H|0n> to file  :                 F             |
 |  Use guiding centre to control phases      :                 T             |
 |  Use phases for initial projections        :                 F             |
 |  Iterations before starting guiding centres:                 0             |
 |  Iterations between using guiding centres  :                 1             |
 *----------------------------------------------------------------------------*
 *-------------------------------- PLOTTING ----------------------------------*
 |  Plotting interpolated bandstructure       :                 T             |
 |   Number of K-path sections                :                 1             |
 |   Divisions along first K-path section     :               100             |
 |   Output format                            :           gnuplot             |
 |   Output mode                              :               s-k             |
 *----------------------------------------------------------------------------*
 |   K-space path sections:                                                   |
 |    From: G       0.000  0.000  0.000     To: X       0.000  0.000  0.500   |
 *----------------------------------------------------------------------------*
 |  Plotting Hamiltonian in WF basis          :                 T             |
 *----------------------------------------------------------------------------*
 Time to read parameters        0.004 (sec)

 *---------------------------------- K-MESH ----------------------------------*
 +----------------------------------------------------------------------------+
 |                    Distance to Nearest-Neighbour Shells                    |
 |                    ------------------------------------                    |
 |          Shell             Distance (Ang^-1)          Multiplicity         |
 |          -----             -----------------          ------------         |
 |             1                   0.911545                      2            |
 |             2                   0.951018                      2            |
 |             3                   1.004602                      2            |
 |             4                   1.317326                      4            |
 |             5                   1.356517                      4            |
 |             6                   1.383351                      4            |
 |             7                   1.656676                      8            |
 |             8                   1.823089                      2            |
 |             9                   1.902036                      2            |
 |            10                   2.009205                      2            |
 |            11                   2.056232                      4            |
 |            12                   2.081557                      4            |
 |            13                   2.109183                      4            |
 |            14                   2.151038                      4            |
 |            15                   2.206313                      4            |
 |            16                   2.222912                      4            |
 |            17                   2.288518                      8            |
 |            18                   2.336211                      8            |
 |            19                   2.402551                      8            |
 |            20                   2.634653                      4            |
 |            21                   2.713035                      4            |
 |            22                   2.734634                      2            |
 |            23                   2.766703                      4            |
 |            24                   2.819684                      8            |
 |            25                   2.853054                      2            |
 |            26                   2.874890                      8            |
 |            27                   2.895282                      4            |
 |            28                   2.912998                      8            |
 |            29                   2.913322                      4            |
 |            30                   2.995134                      4            |
 |            31                   3.013807                      2            |
 |            32                   3.024755                      4            |
 |            33                   3.064618                      8            |
 |            34                   3.148642                      4            |
 |            35                   3.159123                      8            |
 |            36                   3.160296                      4            |
 +----------------------------------------------------------------------------+
 | The b-vectors are chosen automatically                                     |
 | The following shells are used:   1,  2,  3                                 |
 +----------------------------------------------------------------------------+
 |                        Shell   # Nearest-Neighbours                        |
 |                        -----   --------------------                        |
 |                          1               2                                 |
 |                          2               2                                 |
 |                          3               2                                 |
 +----------------------------------------------------------------------------+
 | Completeness relation is fully satisfied [Eq. (B1), PRB 56, 12847 (1997)]  |
 +----------------------------------------------------------------------------+
 |                  b_k Vectors (Ang^-1) and Weights (Ang^2)                  |
 |                  ----------------------------------------                  |
 |            No.         b_k(x)      b_k(y)      b_k(z)        w_b           |
 |            ---        --------------------------------     --------        |
 |             1         0.000000    0.911545    0.000000     0.601747        |
 |             2         0.000000   -0.911545    0.000000     0.601747        |
 |             3         0.951018    0.000000    0.000000     0.552831        |
 |             4        -0.951018    0.000000    0.000000     0.552831        |
 |             5         0.000000    0.000000    1.004602     0.495429        |
 |             6         0.000000    0.000000   -1.004602     0.495429        |
 +----------------------------------------------------------------------------+
 |                           b_k Directions (Ang^-1)                          |
 |                           -----------------------                          |
 |            No.           x           y           z                         |
 |            ---        --------------------------------                     |
 |             1         0.000000    0.911545    0.000000                     |
 |             2         0.951018    0.000000    0.000000                     |
 |             3         0.000000    0.000000    1.004602                     |
 +----------------------------------------------------------------------------+
  
 Time to get kmesh              0.008 (sec)
 *============================================================================*
 |                              MEMORY ESTIMATE                               |
 |         Maximum RAM allocated during each phase of the calculation         |
 *============================================================================*
 |                            Wannierise:            0.01 Mb                  |
 |                          plot_wannier:            0.01 Mb                  |
 *----------------------------------------------------------------------------*
  
 Starting a new Wannier90 calculation ...


 Reading overlaps from wann.mmn    :  Created on 20Jun2022 at 14: 0:30

 Reading projections from wann.amn :  Created on 20Jun2022 at 14: 0:30

 Time to read overlaps          0.001 (sec)

 Writing checkpoint file wann.chk... done

 
 *------------------------------- WANNIERISE ---------------------------------*
 +--------------------------------------------------------------------+<-- CONV
 | Iter  Delta Spread     RMS Gradient      Spread (Ang^2)      Time  |<-- CONV
 +--------------------------------------------------------------------+<-- CONV
 
 ------------------------------------------------------------------------------
 Initial State
  WF centre and spread    1  (  3.242272,  3.451069,  3.565589 )     0.47470144
  WF centre and spread    2  (  3.320168,  2.935031,  3.043446 )     0.46769739
  WF centre and spread    3  (  2.849933,  3.330721,  3.171588 )     0.50862915
  WF centre and spread    4  (  2.873960,  2.963766,  3.508461 )     0.54518027
  Sum of centres and spreads ( 12.286332, 12.680587, 13.289083 )     1.99620825
 
      0     0.200E+01     0.0000000000        1.9962082482       0.00  <-- CONV
        O_D=      0.0000000 O_OD=      0.3675171 O_TOT=      1.9962082 <-- SPRD
 ------------------------------------------------------------------------------
 Cycle:      1
  WF centre and spread    1  (  3.180712, -3.366488, -2.732266 )     0.50227096
  WF centre and spread    2  ( -3.244469,  3.020963,  2.988598 )     0.44018848
  WF centre and spread    3  (  2.862929,  3.252615, -3.038308 )     0.56314455
  WF centre and spread    4  (  2.881145,  2.893532, -2.697885 )     0.44868702
  Sum of centres and spreads (  5.680317,  5.800622, -5.479862 )     1.95429100
 
      1    -0.419E-01     0.2085925113        1.9542910027       0.00  <-- CONV
        O_D=      0.0000000 O_OD=      0.3255999 O_TOT=      1.9542910 <-- SPRD
 Delta: O_D=  0.4667215E-30 O_OD= -0.4191725E-01 O_TOT= -0.4191725E-01 <-- DLTA
 ------------------------------------------------------------------------------
 Cycle:      2
  WF centre and spread    1  (  3.121099, -3.277386, -2.764681 )     0.43225138
  WF centre and spread    2  ( -3.287633,  3.042984,  2.966949 )     0.46877975
  WF centre and spread    3  (  2.856300,  3.167645, -3.007110 )     0.58787582
  WF centre and spread    4  (  2.983994,  2.865356, -2.682947 )     0.44739657
  Sum of centres and spreads (  5.673759,  5.798600, -5.487789 )     1.93630352
 
      2    -0.180E-01     0.2047103879        1.9363035213       0.00  <-- CONV
        O_D=      0.0000000 O_OD=      0.3076124 O_TOT=      1.9363035 <-- SPRD
 Delta: O_D= -0.7283837E-30 O_OD= -0.1798748E-01 O_TOT= -0.1798748E-01 <-- DLTA
 ------------------------------------------------------------------------------
 Cycle:      3
  WF centre and spread    1  (  3.106528, -3.267009, -2.782507 )     0.41506590
  WF centre and spread    2  ( -3.286394,  3.008460,  2.959170 )     0.44657329
  WF centre and spread    3  (  2.801339,  3.139959, -2.998349 )     0.57157641
  WF centre and spread    4  (  3.046551,  2.914990, -2.657927 )     0.48444410
  Sum of centres and spreads (  5.668024,  5.796400, -5.479614 )     1.91765971
 
      3    -0.186E-01     0.1924320244        1.9176597054       0.00  <-- CONV
        O_D=      0.0000000 O_OD=      0.2889686 O_TOT=      1.9176597 <-- SPRD
 Delta: O_D=  0.2826298E-30 O_OD= -0.1864382E-01 O_TOT= -0.1864382E-01 <-- DLTA
 ------------------------------------------------------------------------------
 Cycle:      4
  WF centre and spread    1  (  3.136962, -3.274080, -2.791440 )     0.44285962
  WF centre and spread    2  ( -3.268576,  2.982833,  2.972427 )     0.42547301
  WF centre and spread    3  (  2.707205,  3.107687, -2.982403 )     0.50343582
  WF centre and spread    4  (  3.091405,  2.988083, -2.667098 )     0.52672432
  Sum of centres and spreads (  5.666996,  5.804523, -5.468515 )     1.89849277
 
      4    -0.192E-01     0.1818786980        1.8984927736       0.00  <-- CONV
        O_D=      0.0000000 O_OD=      0.2698017 O_TOT=      1.8984928 <-- SPRD
 Delta: O_D=  0.8994814E-30 O_OD= -0.1916693E-01 O_TOT= -0.1916693E-01 <-- DLTA
 ------------------------------------------------------------------------------
 Cycle:      5
  WF centre and spread    1  (  3.147658, -3.281500, -2.794161 )     0.45475748
  WF centre and spread    2  ( -3.268786,  2.990805,  2.973789 )     0.43625660
  WF centre and spread    3  (  2.690052,  3.109266, -2.984759 )     0.48193696
  WF centre and spread    4  (  3.100660,  2.987590, -2.664975 )     0.52230782
  Sum of centres and spreads (  5.669584,  5.806161, -5.470107 )     1.89525885
 
      5    -0.323E-02     0.0980887824        1.8952588538       0.00  <-- CONV
        O_D=      0.0000000 O_OD=      0.2665677 O_TOT=      1.8952589 <-- SPRD
 Delta: O_D= -0.2356739E-30 O_OD= -0.3233920E-02 O_TOT= -0.3233920E-02 <-- DLTA
 ------------------------------------------------------------------------------
 Cycle:      6
  WF centre and spread    1  (  3.153879, -3.285268, -2.791967 )     0.45790879
  WF centre and spread    2  ( -3.277163,  3.004424,  2.971101 )     0.45167708
  WF centre and spread    3  (  2.688611,  3.118370, -2.995231 )     0.47677439
  WF centre and spread    4  (  3.105406,  2.968252, -2.658232 )     0.50646711
  Sum of centres and spreads (  5.670733,  5.805779, -5.474329 )     1.89282737
 
      6    -0.243E-02     0.0632479941        1.8928273706       0.00  <-- CONV
        O_D=      0.0000000 O_OD=      0.2641363 O_TOT=      1.8928274 <-- SPRD
 Delta: O_D= -0.3384008E-30 O_OD= -0.2431483E-02 O_TOT= -0.2431483E-02 <-- DLTA
 ------------------------------------------------------------------------------
 Cycle:      7
  WF centre and spread    1  (  3.149065, -3.281348, -2.783424 )     0.44951579
  WF centre and spread    2  ( -3.278434,  3.004031,  2.962739 )     0.44080806
  WF centre and spread    3  (  2.703307,  3.123841, -2.995429 )     0.49569342
  WF centre and spread    4  (  3.094031,  2.957626, -2.658294 )     0.50418130
  Sum of centres and spreads (  5.667970,  5.804149, -5.474408 )     1.89019856
 
      7    -0.263E-02     0.0589986039        1.8901985640       0.00  <-- CONV
        O_D=      0.0000000 O_OD=      0.2615074 O_TOT=      1.8901986 <-- SPRD
 Delta: O_D= -0.5492927E-31 O_OD= -0.2628807E-02 O_TOT= -0.2628807E-02 <-- DLTA
 ------------------------------------------------------------------------------
 Cycle:      8
  WF centre and spread    1  (  3.156198, -3.283565, -2.775501 )     0.44619193
  WF centre and spread    2  ( -3.280128,  3.008924,  2.964803 )     0.44863469
  WF centre and spread    3  (  2.710897,  3.137815, -3.008640 )     0.49871553
  WF centre and spread    4  (  3.081496,  2.939208, -2.657420 )     0.49550877
  Sum of centres and spreads (  5.668463,  5.802382, -5.476758 )     1.88905092
 
      8    -0.115E-02     0.0266923587        1.8890509160       0.00  <-- CONV
        O_D=      0.0000000 O_OD=      0.2603598 O_TOT=      1.8890509 <-- SPRD
 Delta: O_D=  0.8034488E-30 O_OD= -0.1147648E-02 O_TOT= -0.1147648E-02 <-- DLTA
 ------------------------------------------------------------------------------
 Cycle:      9
  WF centre and spread    1  (  3.158307, -3.287111, -2.773218 )     0.45023734
  WF centre and spread    2  ( -3.276714,  3.008046,  2.965612 )     0.44562159
  WF centre and spread    3  (  2.711083,  3.143269, -3.011896 )     0.49728669
  WF centre and spread    4  (  3.076079,  2.938438, -2.656635 )     0.49567233
  Sum of centres and spreads (  5.668756,  5.802643, -5.476137 )     1.88881795
 
      9    -0.233E-03     0.0180031609        1.8888179480       0.00  <-- CONV
        O_D=      0.0000000 O_OD=      0.2601268 O_TOT=      1.8888179 <-- SPRD
 Delta: O_D=  0.1647978E-30 O_OD= -0.2329679E-03 O_TOT= -0.2329679E-03 <-- DLTA
 ------------------------------------------------------------------------------
 Cycle:     10
  WF centre and spread    1  (  3.159537, -3.286840, -2.773380 )     0.44923962
  WF centre and spread    2  ( -3.275449,  3.005227,  2.967467 )     0.44528083
  WF centre and spread    3  (  2.711485,  3.144193, -3.013270 )     0.49704508
  WF centre and spread    4  (  3.073318,  2.939916, -2.656487 )     0.49719309
  Sum of centres and spreads (  5.668891,  5.802494, -5.475670 )     1.88875862
 
     10    -0.593E-04     0.0081861932        1.8887586157       0.00  <-- CONV
        O_D=      0.0000000 O_OD=      0.2600675 O_TOT=      1.8887586 <-- SPRD
 Delta: O_D= -0.1280659E-29 O_OD= -0.5933232E-04 O_TOT= -0.5933232E-04 <-- DLTA
 ------------------------------------------------------------------------------
 Cycle:     11
  WF centre and spread    1  (  3.158845, -3.286366, -2.774253 )     0.44926784
  WF centre and spread    2  ( -3.275009,  3.004972,  2.968030 )     0.44544611
  WF centre and spread    3  (  2.712207,  3.143961, -3.013916 )     0.49752278
  WF centre and spread    4  (  3.072897,  2.940068, -2.655463 )     0.49651361
  Sum of centres and spreads (  5.668940,  5.802635, -5.475603 )     1.88875035
 
     11    -0.827E-05     0.0027833066        1.8887503462       0.00  <-- CONV
        O_D=      0.0000000 O_OD=      0.2600592 O_TOT=      1.8887503 <-- SPRD
 Delta: O_D= -0.5128456E-30 O_OD= -0.8269529E-05 O_TOT= -0.8269529E-05 <-- DLTA
 ------------------------------------------------------------------------------
 Cycle:     12
  WF centre and spread    1  (  3.158704, -3.286400, -2.774255 )     0.44940091
  WF centre and spread    2  ( -3.274891,  3.005054,  2.968023 )     0.44535081
  WF centre and spread    3  (  2.712195,  3.143903, -3.013934 )     0.49750457
  WF centre and spread    4  (  3.072939,  2.940106, -2.655422 )     0.49649375
  Sum of centres and spreads (  5.668947,  5.802663, -5.475587 )     1.88875004
 
     12    -0.308E-06     0.0007390302        1.8887500382       0.00  <-- CONV
        O_D=      0.0000000 O_OD=      0.2600589 O_TOT=      1.8887500 <-- SPRD
 Delta: O_D=  0.1035338E-29 O_OD= -0.3080215E-06 O_TOT= -0.3080215E-06 <-- DLTA
 ------------------------------------------------------------------------------
 Cycle:     13
  WF centre and spread    1  (  3.158698, -3.286366, -2.774233 )     0.44932938
  WF centre and spread    2  ( -3.274907,  3.005083,  2.968046 )     0.44541843
  WF centre and spread    3  (  2.712146,  3.143818, -3.013920 )     0.49746274
  WF centre and spread    4  (  3.073016,  2.940115, -2.655488 )     0.49653941
  Sum of centres and spreads (  5.668953,  5.802650, -5.475595 )     1.88874997
 
     13    -0.702E-07     0.0002770134        1.8887499680       0.00  <-- CONV
        O_D=      0.0000000 O_OD=      0.2600589 O_TOT=      1.8887500 <-- SPRD
 Delta: O_D= -0.4839045E-30 O_OD= -0.7017516E-07 O_TOT= -0.7017516E-07 <-- DLTA
 ------------------------------------------------------------------------------
 Cycle:     14
  WF centre and spread    1  (  3.158657, -3.286371, -2.774230 )     0.44935832
  WF centre and spread    2  ( -3.274902,  3.005119,  2.968015 )     0.44538918
  WF centre and spread    3  (  2.712093,  3.143754, -3.013864 )     0.49743488
  WF centre and spread    4  (  3.073104,  2.940154, -2.655513 )     0.49656755
  Sum of centres and spreads (  5.668951,  5.802656, -5.475592 )     1.88874993
 
     14    -0.366E-07     0.0001898124        1.8887499314       0.00  <-- CONV
        O_D=      0.0000000 O_OD=      0.2600588 O_TOT=      1.8887499 <-- SPRD
 Delta: O_D= -0.1170002E-30 O_OD= -0.3658289E-07 O_TOT= -0.3658289E-07 <-- DLTA
 ------------------------------------------------------------------------------
 Cycle:     15
  WF centre and spread    1  (  3.158652, -3.286358, -2.774269 )     0.44936026
  WF centre and spread    2  ( -3.274939,  3.005114,  2.967989 )     0.44539126
  WF centre and spread    3  (  2.712073,  3.143726, -3.013814 )     0.49743879
  WF centre and spread    4  (  3.073159,  2.940179, -2.655499 )     0.49655962
  Sum of centres and spreads (  5.668946,  5.802661, -5.475594 )     1.88874992
 
     15    -0.143E-07     0.0001084620        1.8887499171       0.00  <-- CONV
        O_D=      0.0000000 O_OD=      0.2600588 O_TOT=      1.8887499 <-- SPRD
 Delta: O_D=  0.7711606E-30 O_OD= -0.1430322E-07 O_TOT= -0.1430322E-07 <-- DLTA
 ------------------------------------------------------------------------------
 Cycle:     16
  WF centre and spread    1  (  3.158653, -3.286358, -2.774269 )     0.44935963
  WF centre and spread    2  ( -3.274937,  3.005110,  2.967991 )     0.44538912
  WF centre and spread    3  (  2.712071,  3.143724, -3.013813 )     0.49743697
  WF centre and spread    4  (  3.073159,  2.940184, -2.655501 )     0.49656420
  Sum of centres and spreads (  5.668946,  5.802661, -5.475593 )     1.88874992
 
     16    -0.146E-09     0.0000129841        1.8887499170       0.00  <-- CONV
        O_D=      0.0000000 O_OD=      0.2600588 O_TOT=      1.8887499 <-- SPRD
 Delta: O_D= -0.5740747E-30 O_OD= -0.1464884E-09 O_TOT= -0.1464884E-09 <-- DLTA
 ------------------------------------------------------------------------------
 Cycle:     17
  WF centre and spread    1  (  3.158652, -3.286358, -2.774270 )     0.44936027
  WF centre and spread    2  ( -3.274936,  3.005110,  2.967992 )     0.44538960
  WF centre and spread    3  (  2.712071,  3.143724, -3.013814 )     0.49743619
  WF centre and spread    4  (  3.073159,  2.940185, -2.655500 )     0.49656386
  Sum of centres and spreads (  5.668946,  5.802661, -5.475593 )     1.88874992
 
     17    -0.102E-10     0.0000032896        1.8887499169       0.00  <-- CONV
        O_D=      0.0000000 O_OD=      0.2600588 O_TOT=      1.8887499 <-- SPRD
 Delta: O_D=  0.1090267E-30 O_OD= -0.1015543E-10 O_TOT= -0.1015543E-10 <-- DLTA
 ------------------------------------------------------------------------------
 Cycle:     18
  WF centre and spread    1  (  3.158652, -3.286357, -2.774270 )     0.44936011
  WF centre and spread    2  ( -3.274936,  3.005110,  2.967992 )     0.44538948
  WF centre and spread    3  (  2.712071,  3.143724, -3.013814 )     0.49743651
  WF centre and spread    4  (  3.073159,  2.940185, -2.655500 )     0.49656381
  Sum of centres and spreads (  5.668946,  5.802661, -5.475593 )     1.88874992
 
     18    -0.119E-11     0.0000011944        1.8887499169       0.00  <-- CONV
        O_D=      0.0000000 O_OD=      0.2600588 O_TOT=      1.8887499 <-- SPRD
 Delta: O_D=  0.1929402E-31 O_OD= -0.1194822E-11 O_TOT= -0.1194822E-11 <-- DLTA
 ------------------------------------------------------------------------------
 Cycle:     19
  WF centre and spread    1  (  3.158652, -3.286357, -2.774270 )     0.44936011
  WF centre and spread    2  ( -3.274936,  3.005110,  2.967992 )     0.44538948
  WF centre and spread    3  (  2.712071,  3.143724, -3.013814 )     0.49743651
  WF centre and spread    4  (  3.073159,  2.940185, -2.655500 )     0.49656381
  Sum of centres and spreads (  5.668946,  5.802661, -5.475593 )     1.88874992
 
     19    -0.444E-15     0.0000000257        1.8887499169       0.00  <-- CONV
        O_D=      0.0000000 O_OD=      0.2600588 O_TOT=      1.8887499 <-- SPRD
 Delta: O_D= -0.2163799E-30 O_OD= -0.2775558E-15 O_TOT= -0.4440892E-15 <-- DLTA
 ------------------------------------------------------------------------------
 Cycle:     20
  WF centre and spread    1  (  3.158652, -3.286357, -2.774270 )     0.44936010
  WF centre and spread    2  ( -3.274936,  3.005110,  2.967992 )     0.44538948
  WF centre and spread    3  (  2.712071,  3.143724, -3.013814 )     0.49743651
  WF centre and spread    4  (  3.073159,  2.940185, -2.655500 )     0.49656381
  Sum of centres and spreads (  5.668946,  5.802661, -5.475593 )     1.88874992
 
     20    -0.222E-15     0.0000000211        1.8887499169       0.00  <-- CONV
        O_D=      0.0000000 O_OD=      0.2600588 O_TOT=      1.8887499 <-- SPRD
 Delta: O_D=  0.5241661E-30 O_OD= -0.3330669E-15 O_TOT= -0.2220446E-15 <-- DLTA
 ------------------------------------------------------------------------------
 Cycle:     21
  WF centre and spread    1  (  3.158652, -3.286357, -2.774270 )     0.44936010
  WF centre and spread    2  ( -3.274936,  3.005110,  2.967992 )     0.44538948
  WF centre and spread    3  (  2.712071,  3.143724, -3.013814 )     0.49743651
  WF centre and spread    4  (  3.073159,  2.940185, -2.655500 )     0.49656381
  Sum of centres and spreads (  5.668946,  5.802661, -5.475593 )     1.88874992
 
     21    -0.222E-15     0.0000000144        1.8887499169       0.00  <-- CONV
        O_D=      0.0000000 O_OD=      0.2600588 O_TOT=      1.8887499 <-- SPRD
 Delta: O_D= -0.3593684E-30 O_OD= -0.1110223E-15 O_TOT= -0.2220446E-15 <-- DLTA
 ------------------------------------------------------------------------------

             <<<     Delta < 1.000E-10  over  5 iterations     >>>
             <<< Wannierisation convergence criteria satisfied >>>

 Final State
  WF centre and spread    1  (  3.158652, -3.286357, -2.774270 )     0.44936010
  WF centre and spread    2  ( -3.274936,  3.005110,  2.967992 )     0.44538948
  WF centre and spread    3  (  2.712071,  3.143724, -3.013814 )     0.49743651
  WF centre and spread    4  (  3.073159,  2.940185, -2.655500 )     0.49656381
  Sum of centres and spreads (  5.668946,  5.802661, -5.475593 )     1.88874992
 
         Spreads (Ang^2)       Omega I      =     1.628691115
        ================       Omega D      =     0.000000000
                               Omega OD     =     0.260058802
    Final Spread (Ang^2)       Omega Total  =     1.888749917
 ------------------------------------------------------------------------------
 Time for wannierise            0.002 (sec)

 Writing checkpoint file wann.chk... done

 *---------------------------------------------------------------------------*
 |                               PLOTTING                                    |
 *---------------------------------------------------------------------------*
 
 
 Calculating interpolated band-structure
 
 Time to calculate interpolated band structure       0.003 (sec)
 
 Time for plotting              0.004 (sec)
 Total Execution Time           0.019 (sec)

 *===========================================================================*
 |                             TIMING INFORMATION                            |
 *===========================================================================*
 |    Tag                                                Ncalls      Time (s)|
 |---------------------------------------------------------------------------|
 |kmesh: get                                        :         1         0.008|
 |overlap: allocate                                 :         1         0.000|
 |overlap: read                                     :         1         0.000|
 |wann: main                                        :         1         0.002|
 |plot: main                                        :         1         0.004|
 *---------------------------------------------------------------------------*
 
 All done: wannier90 exiting
