<UPF version="2.0.1">
  <PP_INFO>

 Ar_ONCV_PBE_FR-1.1.upf

 This pseudopotential file has been produced using the code
 ONCVPSP  (Optimized Norm-Conservinng Vanderbilt PSeudopotential)
 fully-relativistic version 2.1.1, 03/26/2014 by D. R. Hamann
 The code is available through a link at URL www.mat-simresearch.com.
 Documentation with the package provides a full description of the
 input data below.

 While it is not required under the terms of the GNU GPL, it is
 suggested that you cite D. R. Hamann, Phys. Rev. B 88, 085117 (2013)
 in any publication using these pseudopotentials.

 -----

 This pseudopotential was produced with the SG15 1.0 and/or 1.1
 parameter sets, the Schlipf-Gygi norm-conserving pseudopotential
 library. For details of the construction and testing of the
 pseudopotential please refer to:

 M. Schlipf, F. Gygi, Comp. Phys. Comm. 196, 36 (2015)
 http://dx.doi.org/10.1016/j.cpc.2015.05.011

 The above authors kindly ask that you include this reference in all
 publications associated to this pseudopotential.

 Please note this fully-relativistic version does not employ the
 above self-consistent procedure at the fully-relativistic level.

 -----

 This pseudopotential was produced by Peter Scherpelz for the purpose
 of performing GW calculations with spin-orbit-coupling. Please see
 the publication:

 P. Scherpelz, M. Govoni, I. Hamada, G. Galli; J. Chem. Theory Comput. (2016)
 http://dx.doi.org/10.1021/acs.jctc.6b00114

 If you use these pseudopotentials in your work, we also kindly ask
 that you cite the above publication.

 -----

 This work is licensed under the Creative Commons Attribution-ShareAlike 
 4.0 International License. To view a copy of this license, visit 
 http://creativecommons.org/licenses/by-sa/4.0/ or send a letter to 
 Creative Commons, PO Box 1866, Mountain View, CA 94042, USA.

 The SG15 library is Copyright 2015 The Regents of the University of
 California.  Further modifications of these files are Copyright 2016
 Peter Scherpelz.

    <PP_INPUTFILE>
# ATOM AND REFERENCE CONFIGURATION
# atsym  z    nc    nv    iexc   psfile
  Ar 18.00     3     2     4      upf
#
#   n    l    f        energy (Ha)
    1    0    2.00
    2    0    2.00
    2    1    6.00
    3    0    2.00
    3    1    6.00
#
# PSEUDOPOTENTIAL AND OPTIMIZATION
# lmax
    1
#
#   l,   rc,     ep,   ncon, nbas, qcut
    0    2.68   -0.89    5    8    7.98
    1    1.78   -0.38    5    8    7.45
#
# LOCAL POTENTIAL
# lloc, lpopt,  rc(5),   dvloc0
    4    5      1.40       0.00
#
# VANDERBILT-KLEINMAN-BYLANDER PROJECTORs
# l, nproj, debl
    0    2    0.8809
    1    2    3.2052
#
# MODEL CORE CHARGE
# icmod, fcfact
    0    0.00
#
# LOG DERIVATIVE ANALYSIS
# epsh1, epsh2, depsh
   -5.00    3.00    0.02
#
# OUTPUT GRID
# rlmax, drl
    6.00    0.01
#
# TEST CONFIGURATIONS
# ncnf
    0
# nvcnf
#   n    l    f
    </PP_INPUTFILE>
  </PP_INFO>
  <!--                               -->
  <!-- END OF HUMAN READABLE SECTION -->
  <!--                               -->
    <PP_HEADER
       generated="Generated using ONCVPSP code by D. R. Hamann"
       author="anonymous"
       date="150703"
       comment=""
       element="Ar"
       pseudo_type="NC"
       relativistic="full"
       is_ultrasoft="F"
       is_paw="F"
       is_coulomb="F"
       has_so="T"
       has_wfc="F"
       has_gipaw="F"
       core_correction="F"
       functional="PBE"
       z_valence="    8.00"
       total_psenergy="  -2.11477144382E+01"
       rho_cutoff="   6.01000000000E+00"
       l_max="1"
       l_local="-1"
       mesh_size="   602"
       number_of_wfc="0"
       number_of_proj="6"/>
 <PP_MESH>
   <PP_R type="real"  size=" 602" columns="8">
    0.0000    0.0100    0.0200    0.0300    0.0400    0.0500    0.0600    0.0700
    0.0800    0.0900    0.1000    0.1100    0.1200    0.1300    0.1400    0.1500
    0.1600    0.1700    0.1800    0.1900    0.2000    0.2100    0.2200    0.2300
    0.2400    0.2500    0.2600    0.2700    0.2800    0.2900    0.3000    0.3100
    0.3200    0.3300    0.3400    0.3500    0.3600    0.3700    0.3800    0.3900
    0.4000    0.4100    0.4200    0.4300    0.4400    0.4500    0.4600    0.4700
    0.4800    0.4900    0.5000    0.5100    0.5200    0.5300    0.5400    0.5500
    0.5600    0.5700    0.5800    0.5900    0.6000    0.6100    0.6200    0.6300
    0.6400    0.6500    0.6600    0.6700    0.6800    0.6900    0.7000    0.7100
    0.7200    0.7300    0.7400    0.7500    0.7600    0.7700    0.7800    0.7900
    0.8000    0.8100    0.8200    0.8300    0.8400    0.8500    0.8600    0.8700
    0.8800    0.8900    0.9000    0.9100    0.9200    0.9300    0.9400    0.9500
    0.9600    0.9700    0.9800    0.9900    1.0000    1.0100    1.0200    1.0300
    1.0400    1.0500    1.0600    1.0700    1.0800    1.0900    1.1000    1.1100
    1.1200    1.1300    1.1400    1.1500    1.1600    1.1700    1.1800    1.1900
    1.2000    1.2100    1.2200    1.2300    1.2400    1.2500    1.2600    1.2700
    1.2800    1.2900    1.3000    1.3100    1.3200    1.3300    1.3400    1.3500
    1.3600    1.3700    1.3800    1.3900    1.4000    1.4100    1.4200    1.4300
    1.4400    1.4500    1.4600    1.4700    1.4800    1.4900    1.5000    1.5100
    1.5200    1.5300    1.5400    1.5500    1.5600    1.5700    1.5800    1.5900
    1.6000    1.6100    1.6200    1.6300    1.6400    1.6500    1.6600    1.6700
    1.6800    1.6900    1.7000    1.7100    1.7200    1.7300    1.7400    1.7500
    1.7600    1.7700    1.7800    1.7900    1.8000    1.8100    1.8200    1.8300
    1.8400    1.8500    1.8600    1.8700    1.8800    1.8900    1.9000    1.9100
    1.9200    1.9300    1.9400    1.9500    1.9600    1.9700    1.9800    1.9900
    2.0000    2.0100    2.0200    2.0300    2.0400    2.0500    2.0600    2.0700
    2.0800    2.0900    2.1000    2.1100    2.1200    2.1300    2.1400    2.1500
    2.1600    2.1700    2.1800    2.1900    2.2000    2.2100    2.2200    2.2300
    2.2400    2.2500    2.2600    2.2700    2.2800    2.2900    2.3000    2.3100
    2.3200    2.3300    2.3400    2.3500    2.3600    2.3700    2.3800    2.3900
    2.4000    2.4100    2.4200    2.4300    2.4400    2.4500    2.4600    2.4700
    2.4800    2.4900    2.5000    2.5100    2.5200    2.5300    2.5400    2.5500
    2.5600    2.5700    2.5800    2.5900    2.6000    2.6100    2.6200    2.6300
    2.6400    2.6500    2.6600    2.6700    2.6800    2.6900    2.7000    2.7100
    2.7200    2.7300    2.7400    2.7500    2.7600    2.7700    2.7800    2.7900
    2.8000    2.8100    2.8200    2.8300    2.8400    2.8500    2.8600    2.8700
    2.8800    2.8900    2.9000    2.9100    2.9200    2.9300    2.9400    2.9500
    2.9600    2.9700    2.9800    2.9900    3.0000    3.0100    3.0200    3.0300
    3.0400    3.0500    3.0600    3.0700    3.0800    3.0900    3.1000    3.1100
    3.1200    3.1300    3.1400    3.1500    3.1600    3.1700    3.1800    3.1900
    3.2000    3.2100    3.2200    3.2300    3.2400    3.2500    3.2600    3.2700
    3.2800    3.2900    3.3000    3.3100    3.3200    3.3300    3.3400    3.3500
    3.3600    3.3700    3.3800    3.3900    3.4000    3.4100    3.4200    3.4300
    3.4400    3.4500    3.4600    3.4700    3.4800    3.4900    3.5000    3.5100
    3.5200    3.5300    3.5400    3.5500    3.5600    3.5700    3.5800    3.5900
    3.6000    3.6100    3.6200    3.6300    3.6400    3.6500    3.6600    3.6700
    3.6800    3.6900    3.7000    3.7100    3.7200    3.7300    3.7400    3.7500
    3.7600    3.7700    3.7800    3.7900    3.8000    3.8100    3.8200    3.8300
    3.8400    3.8500    3.8600    3.8700    3.8800    3.8900    3.9000    3.9100
    3.9200    3.9300    3.9400    3.9500    3.9600    3.9700    3.9800    3.9900
    4.0000    4.0100    4.0200    4.0300    4.0400    4.0500    4.0600    4.0700
    4.0800    4.0900    4.1000    4.1100    4.1200    4.1300    4.1400    4.1500
    4.1600    4.1700    4.1800    4.1900    4.2000    4.2100    4.2200    4.2300
    4.2400    4.2500    4.2600    4.2700    4.2800    4.2900    4.3000    4.3100
    4.3200    4.3300    4.3400    4.3500    4.3600    4.3700    4.3800    4.3900
    4.4000    4.4100    4.4200    4.4300    4.4400    4.4500    4.4600    4.4700
    4.4800    4.4900    4.5000    4.5100    4.5200    4.5300    4.5400    4.5500
    4.5600    4.5700    4.5800    4.5900    4.6000    4.6100    4.6200    4.6300
    4.6400    4.6500    4.6600    4.6700    4.6800    4.6900    4.7000    4.7100
    4.7200    4.7300    4.7400    4.7500    4.7600    4.7700    4.7800    4.7900
    4.8000    4.8100    4.8200    4.8300    4.8400    4.8500    4.8600    4.8700
    4.8800    4.8900    4.9000    4.9100    4.9200    4.9300    4.9400    4.9500
    4.9600    4.9700    4.9800    4.9900    5.0000    5.0100    5.0200    5.0300
    5.0400    5.0500    5.0600    5.0700    5.0800    5.0900    5.1000    5.1100
    5.1200    5.1300    5.1400    5.1500    5.1600    5.1700    5.1800    5.1900
    5.2000    5.2100    5.2200    5.2300    5.2400    5.2500    5.2600    5.2700
    5.2800    5.2900    5.3000    5.3100    5.3200    5.3300    5.3400    5.3500
    5.3600    5.3700    5.3800    5.3900    5.4000    5.4100    5.4200    5.4300
    5.4400    5.4500    5.4600    5.4700    5.4800    5.4900    5.5000    5.5100
    5.5200    5.5300    5.5400    5.5500    5.5600    5.5700    5.5800    5.5900
    5.6000    5.6100    5.6200    5.6300    5.6400    5.6500    5.6600    5.6700
    5.6800    5.6900    5.7000    5.7100    5.7200    5.7300    5.7400    5.7500
    5.7600    5.7700    5.7800    5.7900    5.8000    5.8100    5.8200    5.8300
    5.8400    5.8500    5.8600    5.8700    5.8800    5.8900    5.9000    5.9100
    5.9200    5.9300    5.9400    5.9500    5.9600    5.9700    5.9800    5.9900
    6.0000    6.0100
   </PP_R>
   <PP_RAB type="real"  size=" 602" columns="8">
    0.0100    0.0100    0.0100    0.0100    0.0100    0.0100    0.0100    0.0100
    0.0100    0.0100    0.0100    0.0100    0.0100    0.0100    0.0100    0.0100
    0.0100    0.0100    0.0100    0.0100    0.0100    0.0100    0.0100    0.0100
    0.0100    0.0100    0.0100    0.0100    0.0100    0.0100    0.0100    0.0100
    0.0100    0.0100    0.0100    0.0100    0.0100    0.0100    0.0100    0.0100
    0.0100    0.0100    0.0100    0.0100    0.0100    0.0100    0.0100    0.0100
    0.0100    0.0100    0.0100    0.0100    0.0100    0.0100    0.0100    0.0100
    0.0100    0.0100    0.0100    0.0100    0.0100    0.0100    0.0100    0.0100
    0.0100    0.0100    0.0100    0.0100    0.0100    0.0100    0.0100    0.0100
    0.0100    0.0100    0.0100    0.0100    0.0100    0.0100    0.0100    0.0100
    0.0100    0.0100    0.0100    0.0100    0.0100    0.0100    0.0100    0.0100
    0.0100    0.0100    0.0100    0.0100    0.0100    0.0100    0.0100    0.0100
    0.0100    0.0100    0.0100    0.0100    0.0100    0.0100    0.0100    0.0100
    0.0100    0.0100    0.0100    0.0100    0.0100    0.0100    0.0100    0.0100
    0.0100    0.0100    0.0100    0.0100    0.0100    0.0100    0.0100    0.0100
    0.0100    0.0100    0.0100    0.0100    0.0100    0.0100    0.0100    0.0100
    0.0100    0.0100    0.0100    0.0100    0.0100    0.0100    0.0100    0.0100
    0.0100    0.0100    0.0100    0.0100    0.0100    0.0100    0.0100    0.0100
    0.0100    0.0100    0.0100    0.0100    0.0100    0.0100    0.0100    0.0100
    0.0100    0.0100    0.0100    0.0100    0.0100    0.0100    0.0100    0.0100
    0.0100    0.0100    0.0100    0.0100    0.0100    0.0100    0.0100    0.0100
    0.0100    0.0100    0.0100    0.0100    0.0100    0.0100    0.0100    0.0100
    0.0100    0.0100    0.0100    0.0100    0.0100    0.0100    0.0100    0.0100
    0.0100    0.0100    0.0100    0.0100    0.0100    0.0100    0.0100    0.0100
    0.0100    0.0100    0.0100    0.0100    0.0100    0.0100    0.0100    0.0100
    0.0100    0.0100    0.0100    0.0100    0.0100    0.0100    0.0100    0.0100
    0.0100    0.0100    0.0100    0.0100    0.0100    0.0100    0.0100    0.0100
    0.0100    0.0100    0.0100    0.0100    0.0100    0.0100    0.0100    0.0100
    0.0100    0.0100    0.0100    0.0100    0.0100    0.0100    0.0100    0.0100
    0.0100    0.0100    0.0100    0.0100    0.0100    0.0100    0.0100    0.0100
    0.0100    0.0100    0.0100    0.0100    0.0100    0.0100    0.0100    0.0100
    0.0100    0.0100    0.0100    0.0100    0.0100    0.0100    0.0100    0.0100
    0.0100    0.0100    0.0100    0.0100    0.0100    0.0100    0.0100    0.0100
    0.0100    0.0100    0.0100    0.0100    0.0100    0.0100    0.0100    0.0100
    0.0100    0.0100    0.0100    0.0100    0.0100    0.0100    0.0100    0.0100
    0.0100    0.0100    0.0100    0.0100    0.0100    0.0100    0.0100    0.0100
    0.0100    0.0100    0.0100    0.0100    0.0100    0.0100    0.0100    0.0100
    0.0100    0.0100    0.0100    0.0100    0.0100    0.0100    0.0100    0.0100
    0.0100    0.0100    0.0100    0.0100    0.0100    0.0100    0.0100    0.0100
    0.0100    0.0100    0.0100    0.0100    0.0100    0.0100    0.0100    0.0100
    0.0100    0.0100    0.0100    0.0100    0.0100    0.0100    0.0100    0.0100
    0.0100    0.0100    0.0100    0.0100    0.0100    0.0100    0.0100    0.0100
    0.0100    0.0100    0.0100    0.0100    0.0100    0.0100    0.0100    0.0100
    0.0100    0.0100    0.0100    0.0100    0.0100    0.0100    0.0100    0.0100
    0.0100    0.0100    0.0100    0.0100    0.0100    0.0100    0.0100    0.0100
    0.0100    0.0100    0.0100    0.0100    0.0100    0.0100    0.0100    0.0100
    0.0100    0.0100    0.0100    0.0100    0.0100    0.0100    0.0100    0.0100
    0.0100    0.0100    0.0100    0.0100    0.0100    0.0100    0.0100    0.0100
    0.0100    0.0100    0.0100    0.0100    0.0100    0.0100    0.0100    0.0100
    0.0100    0.0100    0.0100    0.0100    0.0100    0.0100    0.0100    0.0100
    0.0100    0.0100    0.0100    0.0100    0.0100    0.0100    0.0100    0.0100
    0.0100    0.0100    0.0100    0.0100    0.0100    0.0100    0.0100    0.0100
    0.0100    0.0100    0.0100    0.0100    0.0100    0.0100    0.0100    0.0100
    0.0100    0.0100    0.0100    0.0100    0.0100    0.0100    0.0100    0.0100
    0.0100    0.0100    0.0100    0.0100    0.0100    0.0100    0.0100    0.0100
    0.0100    0.0100    0.0100    0.0100    0.0100    0.0100    0.0100    0.0100
    0.0100    0.0100    0.0100    0.0100    0.0100    0.0100    0.0100    0.0100
    0.0100    0.0100    0.0100    0.0100    0.0100    0.0100    0.0100    0.0100
    0.0100    0.0100    0.0100    0.0100    0.0100    0.0100    0.0100    0.0100
    0.0100    0.0100    0.0100    0.0100    0.0100    0.0100    0.0100    0.0100
    0.0100    0.0100    0.0100    0.0100    0.0100    0.0100    0.0100    0.0100
    0.0100    0.0100    0.0100    0.0100    0.0100    0.0100    0.0100    0.0100
    0.0100    0.0100    0.0100    0.0100    0.0100    0.0100    0.0100    0.0100
    0.0100    0.0100    0.0100    0.0100    0.0100    0.0100    0.0100    0.0100
    0.0100    0.0100    0.0100    0.0100    0.0100    0.0100    0.0100    0.0100
    0.0100    0.0100    0.0100    0.0100    0.0100    0.0100    0.0100    0.0100
    0.0100    0.0100    0.0100    0.0100    0.0100    0.0100    0.0100    0.0100
    0.0100    0.0100    0.0100    0.0100    0.0100    0.0100    0.0100    0.0100
    0.0100    0.0100    0.0100    0.0100    0.0100    0.0100    0.0100    0.0100
    0.0100    0.0100    0.0100    0.0100    0.0100    0.0100    0.0100    0.0100
    0.0100    0.0100    0.0100    0.0100    0.0100    0.0100    0.0100    0.0100
    0.0100    0.0100    0.0100    0.0100    0.0100    0.0100    0.0100    0.0100
    0.0100    0.0100    0.0100    0.0100    0.0100    0.0100    0.0100    0.0100
    0.0100    0.0100    0.0100    0.0100    0.0100    0.0100    0.0100    0.0100
    0.0100    0.0100    0.0100    0.0100    0.0100    0.0100    0.0100    0.0100
    0.0100    0.0100
   </PP_RAB>
 </PP_MESH>
  <PP_LOCAL type="real"  size=" 602" columns="4">
   -2.5289767972E+01   -2.5326286527E+01   -2.5435491184E+01   -2.5583369140E+01
   -2.5735907594E+01   -2.5866824328E+01   -2.5961928075E+01   -2.6017580898E+01
   -2.6036877952E+01   -2.6026069315E+01   -2.5992122333E+01   -2.5941388644E+01
   -2.5879047611E+01   -2.5809007007E+01   -2.5734032655E+01   -2.5655966079E+01
   -2.5575952288E+01   -2.5494640891E+01   -2.5412347435E+01   -2.5329174876E+01
   -2.5245100613E+01   -2.5160036200E+01   -2.5073866672E+01   -2.4986475218E+01
   -2.4897757677E+01   -2.4807630156E+01   -2.4716032161E+01   -2.4622926834E+01
   -2.4528299464E+01   -2.4432155008E+01   -2.4334515154E+01   -2.4235415221E+01
   -2.4134901153E+01   -2.4033026708E+01   -2.3929850969E+01   -2.3825436143E+01
   -2.3719845730E+01   -2.3613143018E+01   -2.3505389887E+01   -2.3396645892E+01
   -2.3286967602E+01   -2.3176408144E+01   -2.3065016916E+01   -2.2952839449E+01
   -2.2839917361E+01   -2.2726288412E+01   -2.2611986594E+01   -2.2497042275E+01
   -2.2381482362E+01   -2.2265330483E+01   -2.2148607128E+01   -2.2031329862E+01
   -2.1913513515E+01   -2.1795170293E+01   -2.1676310007E+01   -2.1556940225E+01
   -2.1437066421E+01   -2.1316692206E+01   -2.1195819448E+01   -2.1074448536E+01
   -2.0952578541E+01   -2.0830207464E+01   -2.0707332485E+01   -2.0583950187E+01
   -2.0460056856E+01   -2.0335648743E+01   -2.0210722370E+01   -2.0085274817E+01
   -1.9959303999E+01   -1.9832809009E+01   -1.9705790385E+01   -1.9578250376E+01
   -1.9450193210E+01   -1.9321625299E+01   -1.9192555547E+01   -1.9062995459E+01
   -1.8932959308E+01   -1.8802464256E+01   -1.8671530442E+01   -1.8540181024E+01
   -1.8408442198E+01   -1.8276343172E+01   -1.8143916106E+01   -1.8011196026E+01
   -1.7878220707E+01   -1.7745030525E+01   -1.7611668294E+01   -1.7478179076E+01
   -1.7344609982E+01   -1.7211009953E+01   -1.7077429537E+01   -1.6943920660E+01
   -1.6810536385E+01   -1.6677330687E+01   -1.6544358208E+01   -1.6411674039E+01
   -1.6279333489E+01   -1.6147391876E+01   -1.6015904331E+01   -1.5884925558E+01
   -1.5754509676E+01   -1.5624710031E+01   -1.5495579039E+01   -1.5367168037E+01
   -1.5239527226E+01   -1.5112705262E+01   -1.4986749389E+01   -1.4861705262E+01
   -1.4737616888E+01   -1.4614526613E+01   -1.4492474614E+01   -1.4371499284E+01
   -1.4251637049E+01   -1.4132922602E+01   -1.4015387988E+01   -1.3899063358E+01
   -1.3783976828E+01   -1.3670154546E+01   -1.3557619853E+01   -1.3446394199E+01
   -1.3336497195E+01   -1.3227945700E+01   -1.3120754331E+01   -1.3014935931E+01
   -1.2910500957E+01   -1.2807457171E+01   -1.2705810730E+01   -1.2605565570E+01
   -1.2506722704E+01   -1.2409281758E+01   -1.2313240000E+01   -1.2218591841E+01
   -1.2125330555E+01   -1.2033446544E+01   -1.1942927777E+01   -1.1853761353E+01
   -1.1765930528E+01   -1.1679417274E+01   -1.1594201827E+01   -1.1510260736E+01
   -1.1427570155E+01   -1.1346102307E+01   -1.1265829478E+01   -1.1186722821E+01
   -1.1108755157E+01   -1.1031899244E+01   -1.0956129425E+01   -1.0881420335E+01
   -1.0807747479E+01   -1.0735087474E+01   -1.0663416991E+01   -1.0592714502E+01
   -1.0522958095E+01   -1.0454127703E+01   -1.0386203119E+01   -1.0319165441E+01
   -1.0252996159E+01   -1.0187677484E+01   -1.0123192474E+01   -1.0059524408E+01
   -9.9966577419E+00   -9.9345767719E+00   -9.8732671637E+00   -9.8127141660E+00
   -9.7529044560E+00   -9.6938241552E+00   -9.6354607540E+00   -9.5778011519E+00
   -9.5208334621E+00   -9.4645452548E+00   -9.4089250921E+00   -9.3539610976E+00
   -9.2996421335E+00   -9.2459567552E+00   -9.1928940044E+00   -9.1404427453E+00
   -9.0885921168E+00   -9.0373310921E+00   -8.9866490586E+00   -8.9365350534E+00
   -8.8869791187E+00   -8.8379712615E+00   -8.7895020685E+00   -8.7415626680E+00
   -8.6941440330E+00   -8.6472373646E+00   -8.6008336821E+00   -8.5549250958E+00
   -8.5095031251E+00   -8.4645601428E+00   -8.4200880830E+00   -8.3760795310E+00
   -8.3325270205E+00   -8.2894232670E+00   -8.2467613657E+00   -8.2045341394E+00
   -8.1627351669E+00   -8.1213575548E+00   -8.0803950956E+00   -8.0398413950E+00
   -7.9996902712E+00   -7.9599358713E+00   -7.9205720268E+00   -7.8815932939E+00
   -7.8429938208E+00   -7.8047682103E+00   -7.7669111076E+00   -7.7294170630E+00
   -7.6922811533E+00   -7.6554980852E+00   -7.6190630582E+00   -7.5829712113E+00
   -7.5472176447E+00   -7.5117979066E+00   -7.4767072159E+00   -7.4419412124E+00
   -7.4074955209E+00   -7.3733656494E+00   -7.3395475751E+00   -7.3060369853E+00
   -7.2728298336E+00   -7.2399222104E+00   -7.2073099421E+00   -7.1749893712E+00
   -7.1429566259E+00   -7.1112078731E+00   -7.0797395931E+00   -7.0485480226E+00
   -7.0176296559E+00   -6.9869810743E+00   -6.9565986364E+00   -6.9264791236E+00
   -6.8966191837E+00   -6.8670153908E+00   -6.8376646855E+00   -6.8085638046E+00
   -6.7797095632E+00   -6.7510990040E+00   -6.7227289714E+00   -6.6945964965E+00
   -6.6666987218E+00   -6.6390326006E+00   -6.6115953568E+00   -6.5843842326E+00
   -6.5573962917E+00   -6.5306289292E+00   -6.5040794886E+00   -6.4777451451E+00
   -6.4516234455E+00   -6.4257118372E+00   -6.4000076075E+00   -6.3745084371E+00
   -6.3492118803E+00   -6.3241153372E+00   -6.2992166057E+00   -6.2745133498E+00
   -6.2500030842E+00   -6.2256837067E+00   -6.2015529947E+00   -6.1776085792E+00
   -6.1538484410E+00   -6.1302704740E+00   -6.1068724289E+00   -6.0836523512E+00
   -6.0606082549E+00   -6.0377380151E+00   -6.0150397227E+00   -5.9925115124E+00
   -5.9701513889E+00   -5.9479574697E+00   -5.9259280042E+00   -5.9040611237E+00
   -5.8823549600E+00   -5.8608078681E+00   -5.8394180992E+00   -5.8181837835E+00
   -5.7971033864E+00   -5.7761752444E+00   -5.7553975950E+00   -5.7347688928E+00
   -5.7142875886E+00   -5.6939520405E+00   -5.6737606688E+00   -5.6537120399E+00
   -5.6338046359E+00   -5.6140368341E+00   -5.5944073111E+00   -5.5749146250E+00
   -5.5555572532E+00   -5.5363338293E+00   -5.5172430259E+00   -5.4982834446E+00
   -5.4794536474E+00   -5.4607524221E+00   -5.4421784583E+00   -5.4237303611E+00
   -5.4054069083E+00   -5.3872068881E+00   -5.3691290306E+00   -5.3511720193E+00
   -5.3333347592E+00   -5.3156160588E+00   -5.2980146582E+00   -5.2805294187E+00
   -5.2631592528E+00   -5.2459030248E+00   -5.2287594928E+00   -5.2117276750E+00
   -5.1948064915E+00   -5.1779948237E+00   -5.1612915644E+00   -5.1446957564E+00
   -5.1282063674E+00   -5.1118222986E+00   -5.0955425698E+00   -5.0793662394E+00
   -5.0632923232E+00   -5.0473197480E+00   -5.0314476421E+00   -5.0156750822E+00
   -5.0000011228E+00   -4.9844247421E+00   -4.9689451381E+00   -4.9535614162E+00
   -4.9382726581E+00   -4.9230779249E+00   -4.9079764403E+00   -4.8929673511E+00
   -4.8780497700E+00   -4.8632228270E+00   -4.8484857732E+00   -4.8338377954E+00
   -4.8192780400E+00   -4.8048056924E+00   -4.7904200338E+00   -4.7761202889E+00
   -4.7619056410E+00   -4.7477753176E+00   -4.7337286329E+00   -4.7197648477E+00
   -4.7058831848E+00   -4.6920829017E+00   -4.6783633482E+00   -4.6647238195E+00
   -4.6511635806E+00   -4.6376819074E+00   -4.6242781877E+00   -4.6109517497E+00
   -4.5977019027E+00   -4.5845279309E+00   -4.5714292620E+00   -4.5584052553E+00
   -4.5454552675E+00   -4.5325785811E+00   -4.5197746653E+00   -4.5070429094E+00
   -4.4943827025E+00   -4.4817933670E+00   -4.4692743651E+00   -4.4568251309E+00
   -4.4444450820E+00   -4.4321335920E+00   -4.4198900983E+00   -4.4077140841E+00
   -4.3956049941E+00   -4.3835622560E+00   -4.3715852745E+00   -4.3596735824E+00
   -4.3478266505E+00   -4.3360439493E+00   -4.3243248854E+00   -4.3126690004E+00
   -4.3010758028E+00   -4.2895447880E+00   -4.2780754203E+00   -4.2666671895E+00
   -4.2553196600E+00   -4.2440323506E+00   -4.2328047802E+00   -4.2216364006E+00
   -4.2105268116E+00   -4.1994755608E+00   -4.1884821893E+00   -4.1775462103E+00
   -4.1666671560E+00   -4.1558446340E+00   -4.1450782069E+00   -4.1343674373E+00
   -4.1237118322E+00   -4.1131110105E+00   -4.1025645703E+00   -4.0920720946E+00
   -4.0816331563E+00   -4.0712472926E+00   -4.0609141644E+00   -4.0506333740E+00
   -4.0404045239E+00   -4.0302271863E+00   -4.0201009637E+00   -4.0100255150E+00
   -4.0000004613E+00   -3.9900254235E+00   -3.9800999774E+00   -3.9702237795E+00
   -3.9603964897E+00   -3.9506177467E+00   -3.9408871892E+00   -3.9312044002E+00
   -3.9215690794E+00   -3.9119808910E+00   -3.9024394904E+00   -3.8929445331E+00
   -3.8834956132E+00   -3.8740924627E+00   -3.8647347535E+00   -3.8554221572E+00
   -3.8461543414E+00   -3.8369309255E+00   -3.8277516529E+00   -3.8186162105E+00
   -3.8095242851E+00   -3.8004755592E+00   -3.7914696698E+00   -3.7825063730E+00
   -3.7735853705E+00   -3.7647063636E+00   -3.7558690525E+00   -3.7470730834E+00
   -3.7383182280E+00   -3.7296042016E+00   -3.7209307197E+00   -3.7122974974E+00
   -3.7037041986E+00   -3.6951505965E+00   -3.6866364250E+00   -3.6781614128E+00
   -3.6697252885E+00   -3.6613277395E+00   -3.6529685294E+00   -3.6446474146E+00
   -3.6363641362E+00   -3.6281184357E+00   -3.6199100265E+00   -3.6117386557E+00
   -3.6036041041E+00   -3.5955061251E+00   -3.5874444719E+00   -3.5794188870E+00
   -3.5714290941E+00   -3.5634749005E+00   -3.5555560710E+00   -3.5476723703E+00
   -3.5398235633E+00   -3.5320093711E+00   -3.5242296025E+00   -3.5164840418E+00
   -3.5087724648E+00   -3.5010946472E+00   -3.4934503434E+00   -3.4858393246E+00
   -3.4782614069E+00   -3.4707163766E+00   -3.4632040199E+00   -3.4557241230E+00
   -3.4482764265E+00   -3.4408607672E+00   -3.4334769452E+00   -3.4261247566E+00
   -3.4188039976E+00   -3.4115144464E+00   -3.4042558893E+00   -3.3970281631E+00
   -3.3898310734E+00   -3.3826644258E+00   -3.3755280260E+00   -3.3684216443E+00
   -3.3613451158E+00   -3.3542982677E+00   -3.3472809145E+00   -3.3402928711E+00
   -3.3333339498E+00   -3.3264039244E+00   -3.3195026617E+00   -3.3126299852E+00
   -3.3057857180E+00   -3.2989696836E+00   -3.2921816920E+00   -3.2854215499E+00
   -3.2786891210E+00   -3.2719842370E+00   -3.2653067293E+00   -3.2586564297E+00
   -3.2520331488E+00   -3.2454367186E+00   -3.2388670024E+00   -3.2323238396E+00
   -3.2258070696E+00   -3.2193165318E+00   -3.2128520412E+00   -3.2064134466E+00
   -3.2000006142E+00   -3.1936133906E+00   -3.1872516229E+00   -3.1809151580E+00
   -3.1746038175E+00   -3.1683174603E+00   -3.1620559578E+00   -3.1558191640E+00
   -3.1496069330E+00   -3.1434191188E+00   -3.1372555524E+00   -3.1311160959E+00
   -3.1250006287E+00   -3.1189090116E+00   -3.1128411056E+00   -3.1067967713E+00
   -3.1007758518E+00   -3.0947782059E+00   -3.0888037235E+00   -3.0828522719E+00
   -3.0769237185E+00   -3.0710179307E+00   -3.0651347655E+00   -3.0592740725E+00
   -3.0534357547E+00   -3.0476196853E+00   -3.0418257381E+00   -3.0360537865E+00
   -3.0303037039E+00   -3.0245753261E+00   -3.0188685699E+00   -3.0131833148E+00
   -3.0075194404E+00   -3.0018768259E+00   -2.9962553509E+00   -2.9906548698E+00
   -2.9850752776E+00   -2.9795164720E+00   -2.9739783383E+00   -2.9684607613E+00
   -2.9629636262E+00   -2.9574868088E+00   -2.9520301768E+00   -2.9465936483E+00
   -2.9411771134E+00   -2.9357804628E+00   -2.9304035867E+00   -2.9250463755E+00
   -2.9197086925E+00   -2.9143904500E+00   -2.9090915524E+00   -2.9038118951E+00
   -2.8985513737E+00   -2.8933098836E+00   -2.8880873136E+00   -2.8828835385E+00
   -2.8776984868E+00   -2.8725320588E+00   -2.8673841550E+00   -2.8622546757E+00
   -2.8571435213E+00   -2.8520505733E+00   -2.8469757376E+00   -2.8419189349E+00
   -2.8368800701E+00   -2.8318590482E+00   -2.8268557743E+00   -2.8218701533E+00
   -2.8169020630E+00   -2.8119514329E+00   -2.8070181788E+00   -2.8021022098E+00
   -2.7972034356E+00   -2.7923217655E+00   -2.7874571086E+00   -2.7826093427E+00
   -2.7777784133E+00   -2.7729642341E+00   -2.7681667188E+00   -2.7633857809E+00
   -2.7586213342E+00   -2.7538732882E+00   -2.7491415333E+00   -2.7444260148E+00
   -2.7397266505E+00   -2.7350433579E+00   -2.7303760548E+00   -2.7257246588E+00
   -2.7210890828E+00   -2.7164692236E+00   -2.7118650288E+00   -2.7072764199E+00
   -2.7027033185E+00   -2.6981456460E+00   -2.6936033239E+00   -2.6890762708E+00
   -2.6845643843E+00   -2.6800676166E+00   -2.6755858930E+00   -2.6711191385E+00
   -2.6666672784E+00   -2.6622302379E+00
  </PP_LOCAL>
 <PP_NONLOCAL>
   <PP_BETA.1
       type="real"
       size=" 602"
       columns="4"
       index="1"
       angular_momentum="0"
       cutoff_radius_index=" 272"
       cutoff_radius="    2.7100000000E+00" >
    0.0000000000E+00    1.0915744133E-02    2.1814953482E-02    3.2681071899E-02
    4.3497500669E-02    5.4247577590E-02    6.4914556514E-02    7.5481587476E-02
    8.5931697583E-02    9.6247772787E-02    1.0641254072E-01    1.1640855474E-01
    1.2621817930E-01    1.3582357684E-01    1.4520669636E-01    1.5434926377E-01
    1.6323277420E-01    1.7183848646E-01    1.8014741972E-01    1.8814035257E-01
    1.9579782473E-01    2.0310014135E-01    2.1002738017E-01    2.1655940162E-01
    2.2267586204E-01    2.2835623004E-01    2.3357980620E-01    2.3832574621E-01
    2.4257308737E-01    2.4630077882E-01    2.4948771533E-01    2.5211277482E-01
    2.5415485956E-01    2.5559294083E-01    2.5640610853E-01    2.5657362219E-01
    2.5607496886E-01    2.5488992108E-01    2.5299860146E-01    2.5038154941E-01
    2.4701979066E-01    2.4289491089E-01    2.3798913205E-01    2.3228539159E-01
    2.2576742414E-01    2.1841984566E-01    2.1022823962E-01    2.0117924493E-01
    1.9126064488E-01    1.8046145466E-01    1.6877202190E-01    1.5618410965E-01
    1.4269098269E-01    1.2828751632E-01    1.1297026903E-01    9.6737573325E-02
    7.9589636296E-02    6.1528595310E-02    4.2558634874E-02    2.2686025585E-02
    1.9192283153E-03   -1.9731052182E-02   -4.2251818250E-02   -6.5627679572E-02
   -8.9840850620E-02   -1.1487108732E-01   -1.4069562932E-01   -1.6728920404E-01
   -1.9462400441E-01   -2.2266964829E-01   -2.5139319806E-01   -2.8075916968E-01
   -3.1072954657E-01   -3.4126381275E-01   -3.7231897506E-01   -4.0384962947E-01