<UPF version="2.0.1">
  <PP_INFO>

 Au_ONCV_PBE_FR-1.0.upf

 This pseudopotential file has been produced using the code
 ONCVPSP  (Optimized Norm-Conservinng Vanderbilt PSeudopotential)
 fully-relativistic version 2.1.1, 03/26/2014 by D. R. Hamann
 The code is available through a link at URL www.mat-simresearch.com.
 Documentation with the package provides a full description of the
 input data below.

 While it is not required under the terms of the GNU GPL, it is
 suggested that you cite D. R. Hamann, Phys. Rev. B 88, 085117 (2013)
 in any publication using these pseudopotentials.

 -----

 This pseudopotential was produced with the SG15 1.0 and/or 1.1
 parameter sets, the Schlipf-Gygi norm-conserving pseudopotential
 library. For details of the construction and testing of the
 pseudopotential please refer to:

 M. Schlipf, F. Gygi, Comp. Phys. Comm. 196, 36 (2015)
 http://dx.doi.org/10.1016/j.cpc.2015.05.011

 The above authors kindly ask that you include this reference in all
 publications associated to this pseudopotential.

 Please note this fully-relativistic version does not employ the
 above self-consistent procedure at the fully-relativistic level.

 -----

 This pseudopotential was produced by Peter Scherpelz for the purpose
 of performing GW calculations with spin-orbit-coupling. Please see
 the publication:

 P. Scherpelz, M. Govoni, I. Hamada, G. Galli; J. Chem. Theory Comput. (2016)
 http://dx.doi.org/10.1021/acs.jctc.6b00114

 If you use these pseudopotentials in your work, we also kindly ask
 that you cite the above publication.

 -----

 This work is licensed under the Creative Commons Attribution-ShareAlike 
 4.0 International License. To view a copy of this license, visit 
 http://creativecommons.org/licenses/by-sa/4.0/ or send a letter to 
 Creative Commons, PO Box 1866, Mountain View, CA 94042, USA.

 The SG15 library is Copyright 2015 The Regents of the University of
 California.  Further modifications of these files are Copyright 2016
 Peter Scherpelz.

    <PP_INPUTFILE>
# ATOM AND REFERENCE CONFIGURATION
# atsym  z    nc    nv    iexc   psfile
  Au 79.00    10     4     4      upf
#
#   n    l    f        energy (Ha)
    1    0    2.00
    2    0    2.00
    2    1    6.00
    3    0    2.00
    3    1    6.00
    3    2   10.00
    4    0    2.00
    4    1    6.00
    4    2   10.00
    4    3   14.00
    5    0    2.00
    5    1    6.00
    6    0    2.00
    5    2    9.00
#
# PSEUDOPOTENTIAL AND OPTIMIZATION
# lmax
    3
#
#   l,   rc,     ep,   ncon, nbas, qcut
    0    2.46   -4.08    5    8    6.08
    1    2.46   -2.13    5    8    6.28
    2    2.18   -0.31    5    8    6.84
    3    3.12    0.20    5    8    4.95
#
# LOCAL POTENTIAL
# lloc, lpopt,  rc(5),   dvloc0
    4    5      1.58       0.00
#
# VANDERBILT-KLEINMAN-BYLANDER PROJECTORs
# l, nproj, debl
    0    2    3.8345
    1    2    2.0978
    2    2    1.2716
    3    2    1.7877
#
# MODEL CORE CHARGE
# icmod, fcfact
    0    0.00
#
# LOG DERIVATIVE ANALYSIS
# epsh1, epsh2, depsh
   -5.00    3.00    0.02
#
# OUTPUT GRID
# rlmax, drl
    6.00    0.01
#
# TEST CONFIGURATIONS
# ncnf
    0
# nvcnf
#   n    l    f
    </PP_INPUTFILE>
  </PP_INFO>
  <!--                               -->
  <!-- END OF HUMAN READABLE SECTION -->
  <!--                               -->
    <PP_HEADER
       generated="Generated using ONCVPSP code by D. R. Hamann"
       author="anonymous"
       date="150703"
       comment=""
       element="Au"
       pseudo_type="NC"
       relativistic="full"
       is_ultrasoft="F"
       is_paw="F"
       is_coulomb="F"
       has_so="T"
       has_wfc="F"
       has_gipaw="F"
       core_correction="F"
       functional="PBE"
       z_valence="   19.00"
       total_psenergy="  -1.37294131552E+02"
       rho_cutoff="   6.01000000000E+00"
       l_max="3"
       l_local="-1"
       mesh_size="   602"
       number_of_wfc="0"
       number_of_proj="14"/>
 <PP_MESH>
   <PP_R type="real"  size=" 602" columns="8">
    0.0000    0.0100    0.0200    0.0300    0.0400    0.0500    0.0600    0.0700
    0.0800    0.0900    0.1000    0.1100    0.1200    0.1300    0.1400    0.1500
    0.1600    0.1700    0.1800    0.1900    0.2000    0.2100    0.2200    0.2300
    0.2400    0.2500    0.2600    0.2700    0.2800    0.2900    0.3000    0.3100
    0.3200    0.3300    0.3400    0.3500    0.3600    0.3700    0.3800    0.3900
    0.4000    0.4100    0.4200    0.4300    0.4400    0.4500    0.4600    0.4700
    0.4800    0.4900    0.5000    0.5100    0.5200    0.5300    0.5400    0.5500
    0.5600    0.5700    0.5800    0.5900    0.6000    0.6100    0.6200    0.6300
    0.6400    0.6500    0.6600    0.6700    0.6800    0.6900    0.7000    0.7100
    0.7200    0.7300    0.7400    0.7500    0.7600    0.7700    0.7800    0.7900
    0.8000    0.8100    0.8200    0.8300    0.8400    0.8500    0.8600    0.8700
    0.8800    0.8900    0.9000    0.9100    0.9200    0.9300    0.9400    0.9500
    0.9600    0.9700    0.9800    0.9900    1.0000    1.0100    1.0200    1.0300
    1.0400    1.0500    1.0600    1.0700    1.0800    1.0900    1.1000    1.1100
    1.1200    1.1300    1.1400    1.1500    1.1600    1.1700    1.1800    1.1900
    1.2000    1.2100    1.2200    1.2300    1.2400    1.2500    1.2600    1.2700
    1.2800    1.2900    1.3000    1.3100    1.3200    1.3300    1.3400    1.3500
    1.3600    1.3700    1.3800    1.3900    1.4000    1.4100    1.4200    1.4300
    1.4400    1.4500    1.4600    1.4700    1.4800    1.4900    1.5000    1.5100
    1.5200    1.5300    1.5400    1.5500    1.5600    1.5700    1.5800    1.5900
    1.6000    1.6100    1.6200    1.6300    1.6400    1.6500    1.6600    1.6700
    1.6800    1.6900    1.7000    1.7100    1.7200    1.7300    1.7400    1.7500
    1.7600    1.7700    1.7800    1.7900    1.8000    1.8100    1.8200    1.8300
    1.8400    1.8500    1.8600    1.8700    1.8800    1.8900    1.9000    1.9100
    1.9200    1.9300    1.9400    1.9500    1.9600    1.9700    1.9800    1.9900
    2.0000    2.0100    2.0200    2.0300    2.0400    2.0500    2.0600    2.0700
    2.0800    2.0900    2.1000    2.1100    2.1200    2.1300    2.1400    2.1500
    2.1600    2.1700    2.1800    2.1900    2.2000    2.2100    2.2200    2.2300
    2.2400    2.2500    2.2600    2.2700    2.2800    2.2900    2.3000    2.3100
    2.3200    2.3300    2.3400    2.3500    2.3600    2.3700    2.3800    2.3900
    2.4000    2.4100    2.4200    2.4300    2.4400    2.4500    2.4600    2.4700
    2.4800    2.4900    2.5000    2.5100    2.5200    2.5300    2.5400    2.5500
    2.5600    2.5700    2.5800    2.5900    2.6000    2.6100    2.6200    2.6300
    2.6400    2.6500    2.6600    2.6700    2.6800    2.6900    2.7000    2.7100
    2.7200    2.7300    2.7400    2.7500    2.7600    2.7700    2.7800    2.7900
    2.8000    2.8100    2.8200    2.8300    2.8400    2.8500    2.8600    2.8700
    2.8800    2.8900    2.9000    2.9100    2.9200    2.9300    2.9400    2.9500
    2.9600    2.9700    2.9800    2.9900    3.0000    3.0100    3.0200    3.0300
    3.0400    3.0500    3.0600    3.0700    3.0800    3.0900    3.1000    3.1100
    3.1200    3.1300    3.1400    3.1500    3.1600    3.1700    3.1800    3.1900
    3.2000    3.2100    3.2200    3.2300    3.2400    3.2500    3.2600    3.2700
    3.2800    3.2900    3.3000    3.3100    3.3200    3.3300    3.3400    3.3500
    3.3600    3.3700    3.3800    3.3900    3.4000    3.4100    3.4200    3.4300
    3.4400    3.4500    3.4600    3.4700    3.4800    3.4900    3.5000    3.5100
    3.5200    3.5300    3.5400    3.5500    3.5600    3.5700    3.5800    3.5900
    3.6000    3.6100    3.6200    3.6300    3.6400    3.6500    3.6600    3.6700
    3.6800    3.6900    3.7000    3.7100    3.7200    3.7300    3.7400    3.7500
    3.7600    3.7700    3.7800    3.7900    3.8000    3.8100    3.8200    3.8300
    3.8400    3.8500    3.8600    3.8700    3.8800    3.8900    3.9000    3.9100
    3.9200    3.9300    3.9400    3.9500    3.9600    3.9700    3.9800    3.9900
    4.0000    4.0100    4.0200    4.0300    4.0400    4.0500    4.0600    4.0700
    4.0800    4.0900    4.1000    4.1100    4.1200    4.1300    4.1400    4.1500
    4.1600    4.1700    4.1800    4.1900    4.2000    4.2100    4.2200    4.2300
    4.2400    4.2500    4.2600    4.2700    4.2800    4.2900    4.3000    4.3100
    4.3200    4.3300    4.3400    4.3500    4.3600    4.3700    4.3800    4.3900
    4.4000    4.4100    4.4200    4.4300    4.4400    4.4500    4.4600    4.4700
    4.4800    4.4900    4.5000    4.5100    4.5200    4.5300    4.5400    4.5500
    4.5600    4.5700    4.5800    4.5900    4.6000    4.6100    4.6200    4.6300
    4.6400    4.6500    4.6600    4.6700    4.6800    4.6900    4.7000    4.7100
    4.7200    4.7300    4.7400    4.7500    4.7600    4.7700    4.7800    4.7900
    4.8000    4.8100    4.8200    4.8300    4.8400    4.8500    4.8600    4.8700
    4.8800    4.8900    4.9000    4.9100    4.9200    4.9300    4.9400    4.9500
    4.9600    4.9700    4.9800    4.9900    5.0000    5.0100    5.0200    5.0300
    5.0400    5.0500    5.0600    5.0700    5.0800    5.0900    5.1000    5.1100
    5.1200    5.1300    5.1400    5.1500    5.1600    5.1700    5.1800    5.1900
    5.2000    5.2100    5.2200    5.2300    5.2400    5.2500    5.2600    5.2700
    5.2800    5.2900    5.3000    5.3100    5.3200    5.3300    5.3400    5.3500
    5.3600    5.3700    5.3800    5.3900    5.4000    5.4100    5.4200    5.4300
    5.4400    5.4500    5.4600    5.4700    5.4800    5.4900    5.5000    5.5100
    5.5200    5.5300    5.5400    5.5500    5.5600    5.5700    5.5800    5.5900
    5.6000    5.6100    5.6200    5.6300    5.6400    5.6500    5.6600    5.6700
    5.6800    5.6900    5.7000    5.7100    5.7200    5.7300    5.7400    5.7500
    5.7600    5.7700    5.7800    5.7900    5.8000    5.8100    5.8200    5.8300
    5.8400    5.8500    5.8600    5.8700    5.8800    5.8900    5.9000    5.9100
    5.9200    5.9300    5.9400    5.9500    5.9600    5.9700    5.9800    5.9900
    6.0000    6.0100
   </PP_R>
   <PP_RAB type="real"  size=" 602" columns="8">
    0.0100    0.0100    0.0100    0.0100    0.0100    0.0100    0.0100    0.0100
    0.0100    0.0100    0.0100    0.0100    0.0100    0.0100    0.0100    0.0100
    0.0100    0.0100    0.0100    0.0100    0.0100    0.0100    0.0100    0.0100
    0.0100    0.0100    0.0100    0.0100    0.0100    0.0100    0.0100    0.0100
    0.0100    0.0100    0.0100    0.0100    0.0100    0.0100    0.0100    0.0100
    0.0100    0.0100    0.0100    0.0100    0.0100    0.0100    0.0100    0.0100
    0.0100    0.0100    0.0100    0.0100    0.0100    0.0100    0.0100    0.0100
    0.0100    0.0100    0.0100    0.0100    0.0100    0.0100    0.0100    0.0100
    0.0100    0.0100    0.0100    0.0100    0.0100    0.0100    0.0100    0.0100
    0.0100    0.0100    0.0100    0.0100    0.0100    0.0100    0.0100    0.0100
    0.0100    0.0100    0.0100    0.0100    0.0100    0.0100    0.0100    0.0100
    0.0100    0.0100    0.0100    0.0100    0.0100    0.0100    0.0100    0.0100
    0.0100    0.0100    0.0100    0.0100    0.0100    0.0100    0.0100    0.0100
    0.0100    0.0100    0.0100    0.0100    0.0100    0.0100    0.0100    0.0100
    0.0100    0.0100    0.0100    0.0100    0.0100    0.0100    0.0100    0.0100
    0.0100    0.0100    0.0100    0.0100    0.0100    0.0100    0.0100    0.0100
    0.0100    0.0100    0.0100    0.0100    0.0100    0.0100    0.0100    0.0100
    0.0100    0.0100    0.0100    0.0100    0.0100    0.0100    0.0100    0.0100
    0.0100    0.0100    0.0100    0.0100    0.0100    0.0100    0.0100    0.0100
    0.0100    0.0100    0.0100    0.0100    0.0100    0.0100    0.0100    0.0100
    0.0100    0.0100    0.0100    0.0100    0.0100    0.0100    0.0100    0.0100
    0.0100    0.0100    0.0100    0.0100    0.0100    0.0100    0.0100    0.0100
    0.0100    0.0100    0.0100    0.0100    0.0100    0.0100    0.0100    0.0100
    0.0100    0.0100    0.0100    0.0100    0.0100    0.0100    0.0100    0.0100
    0.0100    0.0100    0.0100    0.0100    0.0100    0.0100    0.0100    0.0100
    0.0100    0.0100    0.0100    0.0100    0.0100    0.0100    0.0100    0.0100
    0.0100    0.0100    0.0100    0.0100    0.0100    0.0100    0.0100    0.0100
    0.0100    0.0100    0.0100    0.0100    0.0100    0.0100    0.0100    0.0100
    0.0100    0.0100    0.0100    0.0100    0.0100    0.0100    0.0100    0.0100
    0.0100    0.0100    0.0100    0.0100    0.0100    0.0100    0.0100    0.0100
    0.0100    0.0100    0.0100    0.0100    0.0100    0.0100    0.0100    0.0100
    0.0100    0.0100    0.0100    0.0100    0.0100    0.0100    0.0100    0.0100
    0.0100    0.0100    0.0100    0.0100    0.0100    0.0100    0.0100    0.0100
    0.0100    0.0100    0.0100    0.0100    0.0100    0.0100    0.0100    0.0100
    0.0100    0.0100    0.0100    0.0100    0.0100    0.0100    0.0100    0.0100
    0.0100    0.0100    0.0100    0.0100    0.0100    0.0100    0.0100    0.0100
    0.0100    0.0100    0.0100    0.0100    0.0100    0.0100    0.0100    0.0100
    0.0100    0.0100    0.0100    0.0100    0.0100    0.0100    0.0100    0.0100
    0.0100    0.0100    0.0100    0.0100    0.0100    0.0100    0.0100    0.0100
    0.0100    0.0100    0.0100    0.0100    0.0100    0.0100    0.0100    0.0100
    0.0100    0.0100    0.0100    0.0100    0.0100    0.0100    0.0100    0.0100
    0.0100    0.0100    0.0100    0.0100    0.0100    0.0100    0.0100    0.0100
    0.0100    0.0100    0.0100    0.0100    0.0100    0.0100    0.0100    0.0100
    0.0100    0.0100    0.0100    0.0100    0.0100    0.0100    0.0100    0.0100
    0.0100    0.0100    0.0100    0.0100    0.0100    0.0100    0.0100    0.0100
    0.0100    0.0100    0.0100    0.0100    0.0100    0.0100    0.0100    0.0100
    0.0100    0.0100    0.0100    0.0100    0.0100    0.0100    0.0100    0.0100
    0.0100    0.0100    0.0100    0.0100    0.0100    0.0100    0.0100    0.0100
    0.0100    0.0100    0.0100    0.0100    0.0100    0.0100    0.0100    0.0100
    0.0100    0.0100    0.0100    0.0100    0.0100    0.0100    0.0100    0.0100
    0.0100    0.0100    0.0100    0.0100    0.0100    0.0100    0.0100    0.0100
    0.0100    0.0100    0.0100    0.0100    0.0100    0.0100    0.0100    0.0100
    0.0100    0.0100    0.0100    0.0100    0.0100    0.0100    0.0100    0.0100
    0.0100    0.0100    0.0100    0.0100    0.0100    0.0100    0.0100    0.0100
    0.0100    0.0100    0.0100    0.0100    0.0100    0.0100    0.0100    0.0100
    0.0100    0.0100    0.0100    0.0100    0.0100    0.0100    0.0100    0.0100
    0.0100    0.0100    0.0100    0.0100    0.0100    0.0100    0.0100    0.0100
    0.0100    0.0100    0.0100    0.0100    0.0100    0.0100    0.0100    0.0100
    0.0100    0.0100    0.0100    0.0100    0.0100    0.0100    0.0100    0.0100
    0.0100    0.0100    0.0100    0.0100    0.0100    0.0100    0.0100    0.0100
    0.0100    0.0100    0.0100    0.0100    0.0100    0.0100    0.0100    0.0100
    0.0100    0.0100    0.0100    0.0100    0.0100    0.0100    0.0100    0.0100
    0.0100    0.0100    0.0100    0.0100    0.0100    0.0100    0.0100    0.0100
    0.0100    0.0100    0.0100    0.0100    0.0100    0.0100    0.0100    0.0100
    0.0100    0.0100    0.0100    0.0100    0.0100    0.0100    0.0100    0.0100
    0.0100    0.0100    0.0100    0.0100    0.0100    0.0100    0.0100    0.0100
    0.0100    0.0100    0.0100    0.0100    0.0100    0.0100    0.0100    0.0100
    0.0100    0.0100    0.0100    0.0100    0.0100    0.0100    0.0100    0.0100
    0.0100    0.0100    0.0100    0.0100    0.0100    0.0100    0.0100    0.0100
    0.0100    0.0100    0.0100    0.0100    0.0100    0.0100    0.0100    0.0100
    0.0100    0.0100    0.0100    0.0100    0.0100    0.0100    0.0100    0.0100
    0.0100    0.0100    0.0100    0.0100    0.0100    0.0100    0.0100    0.0100
    0.0100    0.0100    0.0100    0.0100    0.0100    0.0100    0.0100    0.0100
    0.0100    0.0100    0.0100    0.0100    0.0100    0.0100    0.0100    0.0100
    0.0100    0.0100    0.0100    0.0100    0.0100    0.0100    0.0100    0.0100
    0.0100    0.0100
   </PP_RAB>
 </PP_MESH>
  <PP_LOCAL type="real"  size=" 602" columns="4">
   -5.2728122486E+01   -5.2726211610E+01   -5.2720493977E+01   -5.2710953274E+01
   -5.2697573189E+01   -5.2680332143E+01   -5.2659204444E+01   -5.2634161615E+01
   -5.2605173830E+01   -5.2572211340E+01   -5.2535245848E+01   -5.2494251727E+01
   -5.2449207068E+01   -5.2400094494E+01   -5.2346901760E+01   -5.2289622109E+01
   -5.2228254429E+01   -5.2162803219E+01   -5.2093278393E+01   -5.2019694976E+01
   -5.1942072692E+01   -5.1860435510E+01   -5.1774811145E+01   -5.1685230563E+01
   -5.1591727480E+01   -5.1494337898E+01   -5.1393099667E+01   -5.1288052086E+01
   -5.1179235546E+01   -5.1066691221E+01   -5.0950460795E+01   -5.0830586230E+01
   -5.0707109577E+01   -5.0580072814E+01   -5.0449517721E+01   -5.0315485773E+01
   -5.0178018070E+01   -5.0037155276E+01   -4.9892937584E+01   -4.9745404693E+01
   -4.9594595798E+01   -4.9440549600E+01   -4.9283304318E+01   -4.9122897716E+01
   -4.8959367136E+01   -4.8792749549E+01   -4.8623081600E+01   -4.8450399675E+01
   -4.8274739967E+01   -4.8096138552E+01   -4.7914631478E+01   -4.7730254854E+01
   -4.7543044949E+01   -4.7353038304E+01   -4.7160271840E+01   -4.6964782978E+01
   -4.6766609774E+01   -4.6565791024E+01   -4.6362366432E+01   -4.6156376707E+01
   -4.5947863727E+01   -4.5736870665E+01   -4.5523442086E+01   -4.5307624152E+01
   -4.5089464659E+01   -4.4869013171E+01   -4.4646321180E+01   -4.4421442119E+01
   -4.4194431435E+01   -4.3965346727E+01   -4.3734247740E+01   -4.3501196381E+01
   -4.3266256742E+01   -4.3029495066E+01   -4.2790979792E+01   -4.2550781449E+01
   -4.2308972602E+01   -4.2065627777E+01   -4.1820823369E+01   -4.1574637531E+01
   -4.1327150058E+01   -4.1078442251E+01   -4.0828596782E+01   -4.0577697540E+01
   -4.0325829484E+01   -4.0073078486E+01   -3.9819531168E+01   -3.9565274748E+01
   -3.9310396883E+01   -3.9054985511E+01   -3.8799128701E+01   -3.8542914506E+01
   -3.8286430823E+01   -3.8029765251E+01   -3.7773004970E+01   -3.7516236609E+01
   -3.7259546137E+01   -3.7003018762E+01   -3.6746738821E+01   -3.6490789636E+01
   -3.6235253480E+01   -3.5980211473E+01   -3.5725743507E+01   -3.5471928180E+01
   -3.5218842794E+01   -3.4966563029E+01   -3.4715163134E+01   -3.4464715799E+01
   -3.4215292141E+01   -3.3966961695E+01   -3.3719792000E+01   -3.3473848964E+01
   -3.3229196699E+01   -3.2985897747E+01   -3.2744012228E+01   -3.2503598559E+01
   -3.2264713298E+01   -3.2027411183E+01   -3.1791744378E+01   -3.1557763277E+01
   -3.1325516565E+01   -3.1095050302E+01   -3.0866408426E+01   -3.0639633172E+01
   -3.0414764438E+01   -3.0191839502E+01   -2.9970894062E+01   -2.9751961581E+01
   -2.9535072624E+01   -2.9320256359E+01   -2.9107539539E+01   -2.8896946047E+01
   -2.8688498611E+01   -2.8482216988E+01   -2.8278118499E+01   -2.8076219569E+01
   -2.7876532671E+01   -2.7679069043E+01   -2.7483838093E+01   -2.7290845595E+01
   -2.7100096913E+01   -2.6911593735E+01   -2.6725336046E+01   -2.6541322435E+01
   -2.6359547433E+01   -2.6180005745E+01   -2.6002687584E+01   -2.5827582418E+01
   -2.5654677177E+01   -2.5483955673E+01   -2.5315401510E+01   -2.5148993028E+01
   -2.4984709732E+01   -2.4822525385E+01   -2.4662414223E+01   -2.4504346182E+01
   -2.4348289802E+01   -2.4194210997E+01   -2.4042072700E+01   -2.3891835824E+01
   -2.3743460962E+01   -2.3596907515E+01   -2.3452138522E+01   -2.3309115933E+01
   -2.3167805668E+01   -2.3028172059E+01   -2.2890183612E+01   -2.2753806937E+01
   -2.2619012882E+01   -2.2485770266E+01   -2.2354052040E+01   -2.2223829152E+01
   -2.2095076430E+01   -2.1967766870E+01   -2.1841876952E+01   -2.1717381638E+01
   -2.1594258839E+01   -2.1472485386E+01   -2.1352040413E+01   -2.1232902518E+01
   -2.1115051867E+01   -2.0998468696E+01   -2.0883134035E+01   -2.0769029603E+01
   -2.0656137161E+01   -2.0544439738E+01   -2.0433919730E+01   -2.0324561234E+01
   -2.0216347325E+01   -2.0109262759E+01   -2.0003291566E+01   -1.9898418712E+01
   -1.9794629143E+01   -1.9691907998E+01   -1.9590240961E+01   -1.9489613348E+01
   -1.9390011354E+01   -1.9291420668E+01   -1.9193827655E+01   -1.9097218521E+01
   -1.9001579648E+01   -1.8906897740E+01   -1.8813159197E+01   -1.8720351090E+01
   -1.8628460111E+01   -1.8537473381E+01   -1.8447378070E+01   -1.8358161241E+01
   -1.8269810549E+01   -1.8182313208E+01   -1.8095657054E+01   -1.8009829855E+01
   -1.7924819306E+01   -1.7840613813E+01   -1.7757201229E+01   -1.7674570154E+01
   -1.7592709161E+01   -1.7511606530E+01   -1.7431251799E+01   -1.7351633528E+01
   -1.7272741413E+01   -1.7194565805E+01   -1.7117096034E+01   -1.7040323229E+01
   -1.6964237899E+01   -1.6888830587E+01   -1.6814092473E+01   -1.6740014151E+01
   -1.6666586937E+01   -1.6593802429E+01   -1.6521651599E+01   -1.6450126554E+01
   -1.6379219068E+01   -1.6308920672E+01   -1.6239223954E+01   -1.6170120929E+01
   -1.6101603805E+01   -1.6033665463E+01   -1.5966298221E+01   -1.5899494901E+01
   -1.5833248661E+01   -1.5767552132E+01   -1.5702398671E+01   -1.5637781713E+01
   -1.5573694204E+01   -1.5510129963E+01   -1.5447082697E+01   -1.5384545672E+01
   -1.5322513086E+01   -1.5260978905E+01   -1.5199936685E+01   -1.5139380964E+01
   -1.5079305982E+01   -1.5019705610E+01   -1.4960574639E+01   -1.4901907570E+01
   -1.4843698540E+01   -1.4785942584E+01   -1.4728634470E+01   -1.4671768631E+01
   -1.4615340276E+01   -1.4559344440E+01   -1.4503775831E+01   -1.4448629802E+01
   -1.4393901660E+01   -1.4339586396E+01   -1.4285679463E+01   -1.4232176437E+01
   -1.4179072594E+01   -1.4126363450E+01   -1.4074044848E+01   -1.4022112353E+01
   -1.3970561509E+01   -1.3919388423E+01   -1.3868588950E+01   -1.3818158638E+01
   -1.3768093848E+01   -1.3718390629E+01   -1.3669044803E+01   -1.3620052685E+01
   -1.3571410604E+01   -1.3523114669E+01   -1.3475161113E+01   -1.3427546541E+01
   -1.3380267354E+01   -1.3333319686E+01   -1.3286700400E+01   -1.3240406074E+01
   -1.3194433098E+01   -1.3148778215E+01   -1.3103438279E+01   -1.3058409976E+01
   -1.3013689879E+01   -1.2969275115E+01   -1.2925162574E+01   -1.2881348950E+01
   -1.2837831327E+01   -1.2794606834E+01   -1.2751672463E+01   -1.2709025076E+01
   -1.2666662076E+01   -1.2624580638E+01   -1.2582777773E+01   -1.2541250767E+01
   -1.2499997043E+01   -1.2459013905E+01   -1.2418298409E+01   -1.2377848212E+01
   -1.2337660756E+01   -1.2297733391E+01   -1.2258063476E+01   -1.2218648744E+01
   -1.2179486743E+01   -1.2140574871E+01   -1.2101910787E+01   -1.2063492263E+01
   -1.2025316961E+01   -1.1987382338E+01   -1.1949686313E+01   -1.1912226699E+01
   -1.1875001256E+01   -1.1838007549E+01   -1.1801243675E+01   -1.1764707513E+01
   -1.1728396887E+01   -1.1692309556E+01   -1.1656443682E+01   -1.1620797239E+01
   -1.1585368127E+01   -1.1550154267E+01   -1.1515153886E+01   -1.1480365055E+01
   -1.1445785751E+01   -1.1411414029E+01   -1.1377248187E+01   -1.1343286384E+01
   -1.1309526687E+01   -1.1275967250E+01   -1.1242606450E+01   -1.1209442531E+01
   -1.1176473653E+01   -1.1143698043E+01   -1.1111114161E+01   -1.1078720334E+01
   -1.1046514821E+01   -1.1014495894E+01   -1.0982662101E+01   -1.0951011850E+01
   -1.0919543504E+01   -1.0888255353E+01   -1.0857146044E+01   -1.0826214055E+01
   -1.0795457862E+01   -1.0764875753E+01   -1.0734466472E+01   -1.0704228567E+01
   -1.0674160590E+01   -1.0644260935E+01   -1.0614528315E+01   -1.0584961391E+01
   -1.0555558780E+01   -1.0526319000E+01   -1.0497240704E+01   -1.0468322671E+01
   -1.0439563580E+01   -1.0410962080E+01   -1.0382516745E+01   -1.0354226470E+01
   -1.0326090000E+01   -1.0298106076E+01   -1.0270273295E+01   -1.0242590558E+01
   -1.0215056702E+01   -1.0187670529E+01   -1.0160430772E+01   -1.0133336210E+01
   -1.0106385811E+01   -1.0079578435E+01   -1.0052912939E+01   -1.0026388025E+01
   -1.0000002733E+01   -9.9737559929E+00   -9.9476467161E+00   -9.9216737508E+00
   -9.8958359763E+00   -9.8701324652E+00   -9.8445621791E+00   -9.8191240794E+00
   -9.7938169997E+00   -9.7686400252E+00   -9.7435922064E+00   -9.7186725531E+00
   -9.6938800556E+00   -9.6692136055E+00   -9.6446724014E+00   -9.6202554995E+00
   -9.5959619557E+00   -9.5717907586E+00   -9.5477409549E+00   -9.5238117389E+00
   -9.5000022108E+00   -9.4763114705E+00   -9.4527385148E+00   -9.4292825191E+00
   -9.4059426799E+00   -9.3827181393E+00   -9.3596080393E+00   -9.3366113941E+00
   -9.3137274812E+00   -9.2909555075E+00   -9.2682946551E+00   -9.2457441058E+00
   -9.2233028994E+00   -9.2009703910E+00   -9.1787458057E+00   -9.1566283636E+00
   -9.1346172798E+00   -9.1127116416E+00   -9.0909108436E+00   -9.0692141423E+00
   -9.0476207940E+00   -9.0261300491E+00   -9.0047410367E+00   -8.9834531819E+00
   -8.9622657759E+00   -8.9411781096E+00   -8.9201894741E+00   -8.8992990246E+00
   -8.8785062188E+00   -8.8578103819E+00   -8.8372108382E+00   -8.8167069116E+00
   -8.7962978077E+00   -8.7759829792E+00   -8.7557617987E+00   -8.7356336216E+00
   -8.7155978036E+00   -8.6956536063E+00   -8.6758004599E+00   -8.6560377899E+00
   -8.6363649818E+00   -8.6167814212E+00   -8.5972864321E+00   -8.5778794051E+00
   -8.5585598238E+00   -8.5393271026E+00   -8.5201806557E+00   -8.5011198751E+00
   -8.4821440970E+00   -8.4632528671E+00   -8.4444456271E+00   -8.4257218184E+00
   -8.4070808825E+00   -8.3885221611E+00   -8.3700451919E+00   -8.3516494667E+00
   -8.3333344529E+00   -8.3150996180E+00   -8.2969443828E+00   -8.2788681956E+00
   -8.2608706238E+00   -8.2429511597E+00   -8.2251092956E+00   -8.2073445240E+00
   -8.1896562325E+00   -8.1720440255E+00   -8.1545074323E+00   -8.1370459687E+00
   -8.1196591508E+00   -8.1023464555E+00   -8.0851073679E+00   -8.0679415035E+00
   -8.0508484009E+00   -8.0338275987E+00   -8.0168786354E+00   -8.0000009694E+00
   -7.9831942009E+00   -7.9664579234E+00   -7.9497916967E+00   -7.9331950810E+00
   -7.9166676342E+00   -7.9002088120E+00   -7.8838183013E+00   -7.8674956826E+00
   -7.8512405366E+00   -7.8350524438E+00   -7.8189309565E+00   -7.8028756085E+00
   -7.7868860794E+00   -7.7709619695E+00   -7.7551028787E+00   -7.7393084072E+00
   -7.7235781094E+00   -7.7079115784E+00   -7.6923084932E+00   -7.6767684725E+00
   -7.6612911350E+00   -7.6458760994E+00   -7.6305229296E+00   -7.6152312597E+00
   -7.6000007746E+00   -7.5848311110E+00   -7.5697219053E+00   -7.5546727940E+00
   -7.5396833568E+00   -7.5247532518E+00   -7.5098821767E+00   -7.4950697850E+00
   -7.4803157300E+00   -7.4656196652E+00   -7.4509811927E+00   -7.4363999780E+00
   -7.4218757378E+00   -7.4074081420E+00   -7.3929968599E+00   -7.3786415612E+00
   -7.3643418762E+00   -7.3500974626E+00   -7.3359080624E+00   -7.3217733606E+00
   -7.3076930421E+00   -7.2936667920E+00   -7.2796942744E+00   -7.2657751252E+00
   -7.2519091168E+00   -7.2380959488E+00   -7.2243353209E+00   -7.2106269327E+00
   -7.1969704840E+00   -7.1833655875E+00   -7.1698120389E+00   -7.1563095556E+00
   -7.1428578514E+00   -7.1294566399E+00   -7.1161056347E+00   -7.1028044938E+00
   -7.0895529604E+00   -7.0763507956E+00   -7.0631977264E+00   -7.0500934797E+00
   -7.0370377825E+00   -7.0240303434E+00   -7.0110708416E+00   -6.9981590852E+00
   -6.9852948142E+00   -6.9724777681E+00   -6.9597076867E+00   -6.9469843097E+00
   -6.9343073155E+00   -6.9216764894E+00   -6.9090916073E+00   -6.8965524212E+00
   -6.8840586827E+00   -6.8716101439E+00   -6.8592065436E+00   -6.8468475781E+00
   -6.8345330806E+00   -6.8222628146E+00   -6.8100365435E+00   -6.7978540307E+00
   -6.7857150396E+00   -6.7736192923E+00   -6.7615665585E+00   -6.7495566528E+00
   -6.7375893498E+00   -6.7256644238E+00   -6.7137816494E+00   -6.7019408008E+00
   -6.6901415908E+00   -6.6783838458E+00   -6.6666673684E+00   -6.6549919436E+00
   -6.6433573562E+00   -6.6317633913E+00   -6.6202098337E+00   -6.6086963936E+00
   -6.5972229381E+00   -6.5857892642E+00   -6.5743951670E+00   -6.5630404413E+00
   -6.5517248822E+00   -6.5404482781E+00   -6.5292103623E+00   -6.5180110079E+00
   -6.5068500196E+00   -6.4957272018E+00   -6.4846423591E+00   -6.4735952958E+00
   -6.4625858082E+00   -6.4516136448E+00   -6.4406786844E+00   -6.4297807406E+00
   -6.4189196270E+00   -6.4080951572E+00   -6.3973071448E+00   -6.3865553991E+00
   -6.3758396711E+00   -6.3651598504E+00   -6.3545157591E+00   -6.3439072198E+00
   -6.3333340545E+00   -6.3227960858E+00
  </PP_LOCAL>
 <PP_NONLOCAL>
   <PP_BETA.1
       type="real"
       size=" 602"
       columns="4"
       index="1"
       angular_momentum="0"
       cutoff_radius_index=" 316"
       cutoff_radius="    3.1500000000E+00" >
    0.0000000000E+00   -5.3014868817E-03   -1.0607722304E-02   -1.5923521017E-02
   -2.1253829624E-02   -2.6603791104E-02   -3.1978807653E-02   -3.7384601301E-02
   -4.2827271769E-02   -4.8313351050E-02   -5.3849854214E-02   -5.9444325943E-02
   -6.5104882358E-02   -7.0840247688E-02   -7.6659785387E-02   -8.2573523322E-02
   -8.8592172688E-02   -9.4727140339E-02   -1.0099053429E-01   -1.0739516211E-01
   -1.1395452209E-01   -1.2068278692E-01   -1.2759477990E-01   -1.3470594353E-01
   -1.4203230047E-01   -1.4959040701E-01   -1.5739729882E-01   -1.6547042951E-01
   -1.7382760190E-01   -1.8248689223E-01   -1.9146656754E-01   -2.0078499666E-01
   -2.1046055503E-01   -2.2051152463E-01   -2.3095598550E-01   -2.4181170825E-01
   -2.5309603440E-01   -2.6482576146E-01   -2.7701701768E-01   -2.8968513721E-01
   -3.0284453437E-01   -3.1650857466E-01   -3.3068944577E-01   -3.4539802862E-01
   -3.6064376919E-01   -3.7643455195E-01   -3.9277657539E-01   -4.0967423075E-01
   -4.2712998523E-01   -4.4514427274E-01   -4.6371537246E-01   -4.8283932016E-01
   -5.0250981941E-01   -5.2271812836E-01   -5.4345300565E-01   -5.6470063316E-01
   -5.8644453986E-01   -6.0866558128E-01   -6.3134186003E-01   -6.5444873548E-01