<UPF version="2.0.1">
  <PP_INFO>

 Cd_ONCV_PBE_FR-1.0.upf

 This pseudopotential file has been produced using the code
 ONCVPSP  (Optimized Norm-Conservinng Vanderbilt PSeudopotential)
 fully-relativistic version 2.1.1, 03/26/2014 by D. R. Hamann
 The code is available through a link at URL www.mat-simresearch.com.
 Documentation with the package provides a full description of the
 input data below.

 While it is not required under the terms of the GNU GPL, it is
 suggested that you cite D. R. Hamann, Phys. Rev. B 88, 085117 (2013)
 in any publication using these pseudopotentials.

 -----

 This pseudopotential was produced with the SG15 1.0 and/or 1.1
 parameter sets, the Schlipf-Gygi norm-conserving pseudopotential
 library. For details of the construction and testing of the
 pseudopotential please refer to:

 M. Schlipf, F. Gygi, Comp. Phys. Comm. 196, 36 (2015)
 http://dx.doi.org/10.1016/j.cpc.2015.05.011

 The above authors kindly ask that you include this reference in all
 publications associated to this pseudopotential.

 Please note this fully-relativistic version does not employ the
 above self-consistent procedure at the fully-relativistic level.

 -----

 This pseudopotential was produced by Peter Scherpelz for the purpose
 of performing GW calculations with spin-orbit-coupling. Please see
 the publication:

 P. Scherpelz, M. Govoni, I. Hamada, G. Galli; J. Chem. Theory Comput. (2016)
 http://dx.doi.org/10.1021/acs.jctc.6b00114

 If you use these pseudopotentials in your work, we also kindly ask
 that you cite the above publication.

 -----

 This work is licensed under the Creative Commons Attribution-ShareAlike 
 4.0 International License. To view a copy of this license, visit 
 http://creativecommons.org/licenses/by-sa/4.0/ or send a letter to 
 Creative Commons, PO Box 1866, Mountain View, CA 94042, USA.

 The SG15 library is Copyright 2015 The Regents of the University of
 California.  Further modifications of these files are Copyright 2016
 Peter Scherpelz.

    <PP_INPUTFILE>
# ATOM AND REFERENCE CONFIGURATION
# atsym  z    nc    nv    iexc   psfile
  Cd 48.00     6     4     4      upf
#
#   n    l    f        energy (Ha)
    1    0    2.00
    2    0    2.00
    2    1    6.00
    3    0    2.00
    3    1    6.00
    3    2   10.00
    4    0    2.00
    4    1    6.00
    5    0    2.00
    4    2   10.00
#
# PSEUDOPOTENTIAL AND OPTIMIZATION
# lmax
    2
#
#   l,   rc,     ep,   ncon, nbas, qcut
    0    2.34   -3.89    5    8    6.31
    1    2.67   -2.39    5    8    6.27
    2    3.04   -0.42    5    8    5.75
#
# LOCAL POTENTIAL
# lloc, lpopt,  rc(5),   dvloc0
    4    5      1.68       0.00
#
# VANDERBILT-KLEINMAN-BYLANDER PROJECTORs
# l, nproj, debl
    0    2    3.6819
    1    2    2.3519
    2    2    1.1993
#
# MODEL CORE CHARGE
# icmod, fcfact
    0    0.00
#
# LOG DERIVATIVE ANALYSIS
# epsh1, epsh2, depsh
   -5.00    3.00    0.02
#
# OUTPUT GRID
# rlmax, drl
    6.00    0.01
#
# TEST CONFIGURATIONS
# ncnf
    0
# nvcnf
#   n    l    f
    </PP_INPUTFILE>
  </PP_INFO>
  <!--                               -->
  <!-- END OF HUMAN READABLE SECTION -->
  <!--                               -->
    <PP_HEADER
       generated="Generated using ONCVPSP code by D. R. Hamann"
       author="anonymous"
       date="150703"
       comment=""
       element="Cd"
       pseudo_type="NC"
       relativistic="full"
       is_ultrasoft="F"
       is_paw="F"
       is_coulomb="F"
       has_so="T"
       has_wfc="F"
       has_gipaw="F"
       core_correction="F"
       functional="PBE"
       z_valence="   20.00"
       total_psenergy="  -1.55402798240E+02"
       rho_cutoff="   6.01000000000E+00"
       l_max="2"
       l_local="-1"
       mesh_size="   602"
       number_of_wfc="0"
       number_of_proj="10"/>
 <PP_MESH>
   <PP_R type="real"  size=" 602" columns="8">
    0.0000    0.0100    0.0200    0.0300    0.0400    0.0500    0.0600    0.0700
    0.0800    0.0900    0.1000    0.1100    0.1200    0.1300    0.1400    0.1500
    0.1600    0.1700    0.1800    0.1900    0.2000    0.2100    0.2200    0.2300
    0.2400    0.2500    0.2600    0.2700    0.2800    0.2900    0.3000    0.3100
    0.3200    0.3300    0.3400    0.3500    0.3600    0.3700    0.3800    0.3900
    0.4000    0.4100    0.4200    0.4300    0.4400    0.4500    0.4600    0.4700
    0.4800    0.4900    0.5000    0.5100    0.5200    0.5300    0.5400    0.5500
    0.5600    0.5700    0.5800    0.5900    0.6000    0.6100    0.6200    0.6300
    0.6400    0.6500    0.6600    0.6700    0.6800    0.6900    0.7000    0.7100
    0.7200    0.7300    0.7400    0.7500    0.7600    0.7700    0.7800    0.7900
    0.8000    0.8100    0.8200    0.8300    0.8400    0.8500    0.8600    0.8700
    0.8800    0.8900    0.9000    0.9100    0.9200    0.9300    0.9400    0.9500
    0.9600    0.9700    0.9800    0.9900    1.0000    1.0100    1.0200    1.0300
    1.0400    1.0500    1.0600    1.0700    1.0800    1.0900    1.1000    1.1100
    1.1200    1.1300    1.1400    1.1500    1.1600    1.1700    1.1800    1.1900
    1.2000    1.2100    1.2200    1.2300    1.2400    1.2500    1.2600    1.2700
    1.2800    1.2900    1.3000    1.3100    1.3200    1.3300    1.3400    1.3500
    1.3600    1.3700    1.3800    1.3900    1.4000    1.4100    1.4200    1.4300
    1.4400    1.4500    1.4600    1.4700    1.4800    1.4900    1.5000    1.5100
    1.5200    1.5300    1.5400    1.5500    1.5600    1.5700    1.5800    1.5900
    1.6000    1.6100    1.6200    1.6300    1.6400    1.6500    1.6600    1.6700
    1.6800    1.6900    1.7000    1.7100    1.7200    1.7300    1.7400    1.7500
    1.7600    1.7700    1.7800    1.7900    1.8000    1.8100    1.8200    1.8300
    1.8400    1.8500    1.8600    1.8700    1.8800    1.8900    1.9000    1.9100
    1.9200    1.9300    1.9400    1.9500    1.9600    1.9700    1.9800    1.9900
    2.0000    2.0100    2.0200    2.0300    2.0400    2.0500    2.0600    2.0700
    2.0800    2.0900    2.1000    2.1100    2.1200    2.1300    2.1400    2.1500
    2.1600    2.1700    2.1800    2.1900    2.2000    2.2100    2.2200    2.2300
    2.2400    2.2500    2.2600    2.2700    2.2800    2.2900    2.3000    2.3100
    2.3200    2.3300    2.3400    2.3500    2.3600    2.3700    2.3800    2.3900
    2.4000    2.4100    2.4200    2.4300    2.4400    2.4500    2.4600    2.4700
    2.4800    2.4900    2.5000    2.5100    2.5200    2.5300    2.5400    2.5500
    2.5600    2.5700    2.5800    2.5900    2.6000    2.6100    2.6200    2.6300
    2.6400    2.6500    2.6600    2.6700    2.6800    2.6900    2.7000    2.7100
    2.7200    2.7300    2.7400    2.7500    2.7600    2.7700    2.7800    2.7900
    2.8000    2.8100    2.8200    2.8300    2.8400    2.8500    2.8600    2.8700
    2.8800    2.8900    2.9000    2.9100    2.9200    2.9300    2.9400    2.9500
    2.9600    2.9700    2.9800    2.9900    3.0000    3.0100    3.0200    3.0300
    3.0400    3.0500    3.0600    3.0700    3.0800    3.0900    3.1000    3.1100
    3.1200    3.1300    3.1400    3.1500    3.1600    3.1700    3.1800    3.1900
    3.2000    3.2100    3.2200    3.2300    3.2400    3.2500    3.2600    3.2700
    3.2800    3.2900    3.3000    3.3100    3.3200    3.3300    3.3400    3.3500
    3.3600    3.3700    3.3800    3.3900    3.4000    3.4100    3.4200    3.4300
    3.4400    3.4500    3.4600    3.4700    3.4800    3.4900    3.5000    3.5100
    3.5200    3.5300    3.5400    3.5500    3.5600    3.5700    3.5800    3.5900
    3.6000    3.6100    3.6200    3.6300    3.6400    3.6500    3.6600    3.6700
    3.6800    3.6900    3.7000    3.7100    3.7200    3.7300    3.7400    3.7500
    3.7600    3.7700    3.7800    3.7900    3.8000    3.8100    3.8200    3.8300
    3.8400    3.8500    3.8600    3.8700    3.8800    3.8900    3.9000    3.9100
    3.9200    3.9300    3.9400    3.9500    3.9600    3.9700    3.9800    3.9900
    4.0000    4.0100    4.0200    4.0300    4.0400    4.0500    4.0600    4.0700
    4.0800    4.0900    4.1000    4.1100    4.1200    4.1300    4.1400    4.1500
    4.1600    4.1700    4.1800    4.1900    4.2000    4.2100    4.2200    4.2300
    4.2400    4.2500    4.2600    4.2700    4.2800    4.2900    4.3000    4.3100
    4.3200    4.3300    4.3400    4.3500    4.3600    4.3700    4.3800    4.3900
    4.4000    4.4100    4.4200    4.4300    4.4400    4.4500    4.4600    4.4700
    4.4800    4.4900    4.5000    4.5100    4.5200    4.5300    4.5400    4.5500
    4.5600    4.5700    4.5800    4.5900    4.6000    4.6100    4.6200    4.6300
    4.6400    4.6500    4.6600    4.6700    4.6800    4.6900    4.7000    4.7100
    4.7200    4.7300    4.7400    4.7500    4.7600    4.7700    4.7800    4.7900
    4.8000    4.8100    4.8200    4.8300    4.8400    4.8500    4.8600    4.8700
    4.8800    4.8900    4.9000    4.9100    4.9200    4.9300    4.9400    4.9500
    4.9600    4.9700    4.9800    4.9900    5.0000    5.0100    5.0200    5.0300
    5.0400    5.0500    5.0600    5.0700    5.0800    5.0900    5.1000    5.1100
    5.1200    5.1300    5.1400    5.1500    5.1600    5.1700    5.1800    5.1900
    5.2000    5.2100    5.2200    5.2300    5.2400    5.2500    5.2600    5.2700
    5.2800    5.2900    5.3000    5.3100    5.3200    5.3300    5.3400    5.3500
    5.3600    5.3700    5.3800    5.3900    5.4000    5.4100    5.4200    5.4300
    5.4400    5.4500    5.4600    5.4700    5.4800    5.4900    5.5000    5.5100
    5.5200    5.5300    5.5400    5.5500    5.5600    5.5700    5.5800    5.5900
    5.6000    5.6100    5.6200    5.6300    5.6400    5.6500    5.6600    5.6700
    5.6800    5.6900    5.7000    5.7100    5.7200    5.7300    5.7400    5.7500
    5.7600    5.7700    5.7800    5.7900    5.8000    5.8100    5.8200    5.8300
    5.8400    5.8500    5.8600    5.8700    5.8800    5.8900    5.9000    5.9100
    5.9200    5.9300    5.9400    5.9500    5.9600    5.9700    5.9800    5.9900
    6.0000    6.0100
   </PP_R>
   <PP_RAB type="real"  size=" 602" columns="8">
    0.0100    0.0100    0.0100    0.0100    0.0100    0.0100    0.0100    0.0100
    0.0100    0.0100    0.0100    0.0100    0.0100    0.0100    0.0100    0.0100
    0.0100    0.0100    0.0100    0.0100    0.0100    0.0100    0.0100    0.0100
    0.0100    0.0100    0.0100    0.0100    0.0100    0.0100    0.0100    0.0100
    0.0100    0.0100    0.0100    0.0100    0.0100    0.0100    0.0100    0.0100
    0.0100    0.0100    0.0100    0.0100    0.0100    0.0100    0.0100    0.0100
    0.0100    0.0100    0.0100    0.0100    0.0100    0.0100    0.0100    0.0100
    0.0100    0.0100    0.0100    0.0100    0.0100    0.0100    0.0100    0.0100
    0.0100    0.0100    0.0100    0.0100    0.0100    0.0100    0.0100    0.0100
    0.0100    0.0100    0.0100    0.0100    0.0100    0.0100    0.0100    0.0100
    0.0100    0.0100    0.0100    0.0100    0.0100    0.0100    0.0100    0.0100
    0.0100    0.0100    0.0100    0.0100    0.0100    0.0100    0.0100    0.0100
    0.0100    0.0100    0.0100    0.0100    0.0100    0.0100    0.0100    0.0100
    0.0100    0.0100    0.0100    0.0100    0.0100    0.0100    0.0100    0.0100
    0.0100    0.0100    0.0100    0.0100    0.0100    0.0100    0.0100    0.0100
    0.0100    0.0100    0.0100    0.0100    0.0100    0.0100    0.0100    0.0100
    0.0100    0.0100    0.0100    0.0100    0.0100    0.0100    0.0100    0.0100
    0.0100    0.0100    0.0100    0.0100    0.0100    0.0100    0.0100    0.0100
    0.0100    0.0100    0.0100    0.0100    0.0100    0.0100    0.0100    0.0100
    0.0100    0.0100    0.0100    0.0100    0.0100    0.0100    0.0100    0.0100
    0.0100    0.0100    0.0100    0.0100    0.0100    0.0100    0.0100    0.0100
    0.0100    0.0100    0.0100    0.0100    0.0100    0.0100    0.0100    0.0100
    0.0100    0.0100    0.0100    0.0100    0.0100    0.0100    0.0100    0.0100
    0.0100    0.0100    0.0100    0.0100    0.0100    0.0100    0.0100    0.0100
    0.0100    0.0100    0.0100    0.0100    0.0100    0.0100    0.0100    0.0100
    0.0100    0.0100    0.0100    0.0100    0.0100    0.0100    0.0100    0.0100
    0.0100    0.0100    0.0100    0.0100    0.0100    0.0100    0.0100    0.0100
    0.0100    0.0100    0.0100    0.0100    0.0100    0.0100    0.0100    0.0100
    0.0100    0.0100    0.0100    0.0100    0.0100    0.0100    0.0100    0.0100
    0.0100    0.0100    0.0100    0.0100    0.0100    0.0100    0.0100    0.0100
    0.0100    0.0100    0.0100    0.0100    0.0100    0.0100    0.0100    0.0100
    0.0100    0.0100    0.0100    0.0100    0.0100    0.0100    0.0100    0.0100
    0.0100    0.0100    0.0100    0.0100    0.0100    0.0100    0.0100    0.0100
    0.0100    0.0100    0.0100    0.0100    0.0100    0.0100    0.0100    0.0100
    0.0100    0.0100    0.0100    0.0100    0.0100    0.0100    0.0100    0.0100
    0.0100    0.0100    0.0100    0.0100    0.0100    0.0100    0.0100    0.0100
    0.0100    0.0100    0.0100    0.0100    0.0100    0.0100    0.0100    0.0100
    0.0100    0.0100    0.0100    0.0100    0.0100    0.0100    0.0100    0.0100
    0.0100    0.0100    0.0100    0.0100    0.0100    0.0100    0.0100    0.0100
    0.0100    0.0100    0.0100    0.0100    0.0100    0.0100    0.0100    0.0100
    0.0100    0.0100    0.0100    0.0100    0.0100    0.0100    0.0100    0.0100
    0.0100    0.0100    0.0100    0.0100    0.0100    0.0100    0.0100    0.0100
    0.0100    0.0100    0.0100    0.0100    0.0100    0.0100    0.0100    0.0100
    0.0100    0.0100    0.0100    0.0100    0.0100    0.0100    0.0100    0.0100
    0.0100    0.0100    0.0100    0.0100    0.0100    0.0100    0.0100    0.0100
    0.0100    0.0100    0.0100    0.0100    0.0100    0.0100    0.0100    0.0100
    0.0100    0.0100    0.0100    0.0100    0.0100    0.0100    0.0100    0.0100
    0.0100    0.0100    0.0100    0.0100    0.0100    0.0100    0.0100    0.0100
    0.0100    0.0100    0.0100    0.0100    0.0100    0.0100    0.0100    0.0100
    0.0100    0.0100    0.0100    0.0100    0.0100    0.0100    0.0100    0.0100
    0.0100    0.0100    0.0100    0.0100    0.0100    0.0100    0.0100    0.0100
    0.0100    0.0100    0.0100    0.0100    0.0100    0.0100    0.0100    0.0100
    0.0100    0.0100    0.0100    0.0100    0.0100    0.0100    0.0100    0.0100
    0.0100    0.0100    0.0100    0.0100    0.0100    0.0100    0.0100    0.0100
    0.0100    0.0100    0.0100    0.0100    0.0100    0.0100    0.0100    0.0100
    0.0100    0.0100    0.0100    0.0100    0.0100    0.0100    0.0100    0.0100
    0.0100    0.0100    0.0100    0.0100    0.0100    0.0100    0.0100    0.0100
    0.0100    0.0100    0.0100    0.0100    0.0100    0.0100    0.0100    0.0100
    0.0100    0.0100    0.0100    0.0100    0.0100    0.0100    0.0100    0.0100
    0.0100    0.0100    0.0100    0.0100    0.0100    0.0100    0.0100    0.0100
    0.0100    0.0100    0.0100    0.0100    0.0100    0.0100    0.0100    0.0100
    0.0100    0.0100    0.0100    0.0100    0.0100    0.0100    0.0100    0.0100
    0.0100    0.0100    0.0100    0.0100    0.0100    0.0100    0.0100    0.0100
    0.0100    0.0100    0.0100    0.0100    0.0100    0.0100    0.0100    0.0100
    0.0100    0.0100    0.0100    0.0100    0.0100    0.0100    0.0100    0.0100
    0.0100    0.0100    0.0100    0.0100    0.0100    0.0100    0.0100    0.0100
    0.0100    0.0100    0.0100    0.0100    0.0100    0.0100    0.0100    0.0100
    0.0100    0.0100    0.0100    0.0100    0.0100    0.0100    0.0100    0.0100
    0.0100    0.0100    0.0100    0.0100    0.0100    0.0100    0.0100    0.0100
    0.0100    0.0100    0.0100    0.0100    0.0100    0.0100    0.0100    0.0100
    0.0100    0.0100    0.0100    0.0100    0.0100    0.0100    0.0100    0.0100
    0.0100    0.0100    0.0100    0.0100    0.0100    0.0100    0.0100    0.0100
    0.0100    0.0100    0.0100    0.0100    0.0100    0.0100    0.0100    0.0100
    0.0100    0.0100    0.0100    0.0100    0.0100    0.0100    0.0100    0.0100
    0.0100    0.0100    0.0100    0.0100    0.0100    0.0100    0.0100    0.0100
    0.0100    0.0100
   </PP_RAB>
 </PP_MESH>
  <PP_LOCAL type="real"  size=" 602" columns="4">
   -4.9227429672E+01   -4.9225961876E+01   -4.9221571124E+01   -4.9214243563E+01
   -4.9203965340E+01   -4.9190718225E+01   -4.9174480660E+01   -4.9155228968E+01
   -4.9132938635E+01   -4.9107585579E+01   -4.9079147324E+01   -4.9047604036E+01
   -4.9012939360E+01   -4.8975141045E+01   -4.8934201347E+01   -4.8890117213E+01
   -4.8842890277E+01   -4.8792526693E+01   -4.8739036828E+01   -4.8682434869E+01
   -4.8622738353E+01   -4.8559967675E+01   -4.8494145574E+01   -4.8425296642E+01
   -4.8353446849E+01   -4.8278623115E+01   -4.8200852924E+01   -4.8120163985E+01
   -4.8036583951E+01   -4.7950140182E+01   -4.7860859558E+01   -4.7768768334E+01
   -4.7673892043E+01   -4.7576255425E+01   -4.7475882397E+01   -4.7372796044E+01
   -4.7267018639E+01   -4.7158571681E+01   -4.7047475949E+01   -4.6933751572E+01
   -4.6817418110E+01   -4.6698494639E+01   -4.6576999853E+01   -4.6452952155E+01
   -4.6326369772E+01   -4.6197270848E+01   -4.6065673560E+01   -4.5931596217E+01
   -4.5795057368E+01   -4.5656075897E+01   -4.5514671127E+01   -4.5370862914E+01
   -4.5224671736E+01   -4.5076118771E+01   -4.4925225999E+01   -4.4772016243E+01
   -4.4616513277E+01   -4.4458741852E+01   -4.4298727790E+01   -4.4136497985E+01
   -4.3972080516E+01   -4.3805504606E+01   -4.3636800723E+01   -4.3466000573E+01
   -4.3293137089E+01   -4.3118244527E+01   -4.2941358401E+01   -4.2762515492E+01
   -4.2581753882E+01   -4.2399112932E+01   -4.2214633249E+01   -4.2028356680E+01
   -4.1840326282E+01   -4.1650586340E+01   -4.1459182287E+01   -4.1266160693E+01
   -4.1071569225E+01   -4.0875456617E+01   -4.0677872622E+01   -4.0478867979E+01
   -4.0278494360E+01   -4.0076804336E+01   -3.9873851329E+01   -3.9669689555E+01
   -3.9464373984E+01   -3.9257960290E+01   -3.9050504799E+01   -3.8842064443E+01
   -3.8632696707E+01   -3.8422459575E+01   -3.8211411492E+01   -3.7999611304E+01
   -3.7787118210E+01   -3.7573991709E+01   -3.7360291555E+01   -3.7146077703E+01
   -3.6931410260E+01   -3.6716349441E+01   -3.6500955510E+01   -3.6285288747E+01
   -3.6069409385E+01   -3.5853377570E+01   -3.5637253305E+01   -3.5421096414E+01
   -3.5204966487E+01   -3.4988922868E+01   -3.4773024536E+01   -3.4557330111E+01
   -3.4341897803E+01   -3.4126785375E+01   -3.3912050132E+01   -3.3697748733E+01
   -3.3483937287E+01   -3.3270671287E+01   -3.3058005648E+01   -3.2845994368E+01
   -3.2634690772E+01   -3.2424147454E+01   -3.2214416173E+01   -3.2005547627E+01
   -3.1797591697E+01   -3.1590597541E+01   -3.1384612894E+01   -3.1179684605E+01
   -3.0975858716E+01   -3.0773179801E+01   -3.0571691279E+01   -3.0371435770E+01
   -3.0172454271E+01   -2.9974786464E+01   -2.9778471285E+01   -2.9583545692E+01
   -2.9390045361E+01   -2.9198005316E+01   -2.9007457960E+01   -2.8818434939E+01
   -2.8630966583E+01   -2.8445080757E+01   -2.8260804882E+01   -2.8078163908E+01
   -2.7897181221E+01   -2.7717879457E+01   -2.7540277910E+01   -2.7364395783E+01
   -2.7190249340E+01   -2.7017853358E+01   -2.6847221487E+01   -2.6678363861E+01
   -2.6511291106E+01   -2.6346009295E+01   -2.6182524703E+01   -2.6020840372E+01
   -2.5860957710E+01   -2.5702876690E+01   -2.5546593765E+01   -2.5392105739E+01
   -2.5239404160E+01   -2.5088482375E+01   -2.4939327487E+01   -2.4791928454E+01
   -2.4646268737E+01   -2.4502332654E+01   -2.4360099990E+01   -2.4219550514E+01
   -2.4080660292E+01   -2.3943404698E+01   -2.3807755982E+01   -2.3673685403E+01
   -2.3541161055E+01   -2.3410151329E+01   -2.3280623044E+01   -2.3152544093E+01
   -2.3025882935E+01   -2.2900608422E+01   -2.2776690458E+01   -2.2654099039E+01
   -2.2532805693E+01   -2.2412781596E+01   -2.2294000169E+01   -2.2176433778E+01
   -2.2060057993E+01   -2.1944846370E+01   -2.1830776609E+01   -2.1717824127E+01
   -2.1605968121E+01   -2.1495186377E+01   -2.1385459299E+01   -2.1276767284E+01
   -2.1169091739E+01   -2.1062415751E+01   -2.0956721593E+01   -2.0851994875E+01
   -2.0748218911E+01   -2.0645380998E+01   -2.0543466626E+01   -2.0442463437E+01
   -2.0342359263E+01   -2.0243142008E+01   -2.0144801405E+01   -2.0047325750E+01
   -1.9950705799E+01   -1.9854931199E+01   -1.9759992523E+01   -1.9665880627E+01
   -1.9572586107E+01   -1.9480100324E+01   -1.9388414272E+01   -1.9297519220E+01
   -1.9207406453E+01   -1.9118067201E+01   -1.9029492597E+01   -1.8941673961E+01
   -1.8854602191E+01   -1.8768268307E+01   -1.8682663303E+01   -1.8597777750E+01
   -1.8513602536E+01   -1.8430128152E+01   -1.8347345096E+01   -1.8265243939E+01
   -1.8183815088E+01   -1.8103048931E+01   -1.8022936019E+01   -1.7943467009E+01
   -1.7864632141E+01   -1.7786422657E+01   -1.7708829385E+01   -1.7631843077E+01
   -1.7555455847E+01   -1.7479658752E+01   -1.7404443864E+01   -1.7329804092E+01
   -1.7255730955E+01   -1.7182218293E+01   -1.7109259790E+01   -1.7036847709E+01
   -1.6964977699E+01   -1.6893643963E+01   -1.6822840450E+01   -1.6752563646E+01
   -1.6682808612E+01   -1.6613570848E+01   -1.6544847487E+01   -1.6476634466E+01
   -1.6408928480E+01   -1.6341727096E+01   -1.6275027047E+01   -1.6208825760E+01
   -1.6143121042E+01   -1.6077910255E+01   -1.6013191131E+01   -1.5948961515E+01
   -1.5885219175E+01   -1.5821961818E+01   -1.5759187137E+01   -1.5696893045E+01
   -1.5635077032E+01   -1.5573736471E+01   -1.5512869160E+01   -1.5452472309E+01
   -1.5392542835E+01   -1.5333078204E+01   -1.5274075366E+01   -1.5215530705E+01
   -1.5157441200E+01   -1.5099803595E+01   -1.5042613734E+01   -1.4985868039E+01
   -1.4929563091E+01   -1.4873694246E+01   -1.4818257374E+01   -1.4763248877E+01
   -1.4708663762E+01   -1.4654497563E+01   -1.4600746113E+01   -1.4547404570E+01
   -1.4494468131E+01   -1.4441932188E+01   -1.4389791993E+01   -1.4338042633E+01
   -1.4286679292E+01   -1.4235697139E+01   -1.4185091405E+01   -1.4134857293E+01
   -1.4084989814E+01   -1.4035484423E+01   -1.3986336509E+01   -1.3937541228E+01
   -1.3889093933E+01   -1.3840990458E+01   -1.3793226375E+01   -1.3745796707E+01
   -1.3698697853E+01   -1.3651925715E+01   -1.3605475828E+01   -1.3559344226E+01
   -1.3513527515E+01   -1.3468021934E+01   -1.3422823018E+01   -1.3377928042E+01
   -1.3333333651E+01   -1.3289036157E+01   -1.3245032172E+01   -1.3201319116E+01
   -1.3157893964E+01   -1.3114753226E+01   -1.3071894431E+01   -1.3029314959E+01
   -1.2987012016E+01   -1.2944982659E+01   -1.2903224547E+01   -1.2861735077E+01
   -1.2820511533E+01   -1.2779551337E+01   -1.2738852132E+01   -1.2698411426E+01
   -1.2658226529E+01   -1.2618295147E+01   -1.2578614991E+01   -1.2539183691E+01
   -1.2499998643E+01   -1.2461057789E+01   -1.2422358888E+01   -1.2383899653E+01
   -1.2345677636E+01   -1.2307690902E+01   -1.2269937297E+01   -1.2232414609E+01
   -1.2195120568E+01   -1.2158053311E+01   -1.2121210780E+01   -1.2084590848E+01
   -1.2048191393E+01   -1.2012010623E+01   -1.1976046578E+01   -1.1940297220E+01
   -1.1904760541E+01   -1.1869434829E+01   -1.1834318218E+01   -1.1799408763E+01
   -1.1764704541E+01   -1.1730203927E+01   -1.1695905141E+01   -1.1661806344E+01
   -1.1627905665E+01   -1.1594201572E+01   -1.1560692369E+01   -1.1527376325E+01
   -1.1494251598E+01   -1.1461316754E+01   -1.1428570175E+01   -1.1396010242E+01
   -1.1363635131E+01   -1.1331443496E+01   -1.1299433797E+01   -1.1267604491E+01
   -1.1235953875E+01   -1.1204480569E+01   -1.1173183151E+01   -1.1142060149E+01
   -1.1111109989E+01   -1.1080331232E+01   -1.1049722579E+01   -1.1019282627E+01
   -1.0989009934E+01   -1.0958902986E+01   -1.0928960607E+01   -1.0899181458E+01
   -1.0869564202E+01   -1.0840107342E+01   -1.0810809714E+01   -1.0781670078E+01
   -1.0752687159E+01   -1.0723859604E+01   -1.0695186123E+01   -1.0666665617E+01
   -1.0638296867E+01   -1.0610078659E+01   -1.0582009606E+01   -1.0554088702E+01
   -1.0526314801E+01   -1.0498686742E+01   -1.0471203292E+01   -1.0443863279E+01
   -1.0416665707E+01   -1.0389609470E+01   -1.0362693463E+01   -1.0335916434E+01
   -1.0309277436E+01   -1.0282775445E+01   -1.0256409408E+01   -1.0230178236E+01
   -1.0204080781E+01   -1.0178116176E+01   -1.0152283417E+01   -1.0126581499E+01
   -1.0101009331E+01   -1.0075565932E+01   -1.0050250430E+01   -1.0025061867E+01
   -9.9999992850E+00   -9.9750616006E+00   -9.9502479740E+00   -9.9255575327E+00
   -9.9009893634E+00   -9.8765425530E+00   -9.8522160358E+00   -9.8280090837E+00
   -9.8039208333E+00   -9.7799504140E+00   -9.7560969395E+00   -9.7323594171E+00
   -9.7087371574E+00   -9.6852293305E+00   -9.6618351061E+00   -9.6385536263E+00
   -9.6153839690E+00   -9.5923254688E+00   -9.5693773343E+00   -9.5465387741E+00
   -9.5238089661E+00   -9.5011870362E+00   -9.4786723499E+00   -9.4562641526E+00
   -9.4339616899E+00   -9.4117641828E+00   -9.3896707836E+00   -9.3676808955E+00
   -9.3457937990E+00   -9.3240087749E+00   -9.3023250943E+00   -9.2807419160E+00
   -9.2592586869E+00   -9.2378747210E+00   -9.2165893325E+00   -9.1954018357E+00
   -9.1743114184E+00   -9.1533175355E+00   -9.1324195468E+00   -9.1116167985E+00
   -9.0909086365E+00   -9.0702943128E+00   -9.0497732436E+00   -9.0293448498E+00
   -9.0090085080E+00   -8.9887635946E+00   -8.9686094319E+00   -8.9485453808E+00
   -8.9285709280E+00   -8.9086854790E+00   -8.8888884394E+00   -8.8691792080E+00
   -8.8495570757E+00   -8.8300215983E+00   -8.8105722090E+00   -8.7912083413E+00
   -8.7719294283E+00   -8.7527348209E+00   -8.7336240047E+00   -8.7145964859E+00
   -8.6956517244E+00   -8.6767891798E+00   -8.6580082909E+00   -8.6393084382E+00
   -8.6206892103E+00   -8.6021500921E+00   -8.5836905685E+00   -8.5653101244E+00
   -8.5470081682E+00   -8.5287842290E+00   -8.5106378624E+00   -8.4925685772E+00
   -8.4745758824E+00   -8.4566592852E+00   -8.4388181801E+00   -8.4210522148E+00
   -8.4033609209E+00   -8.3857438303E+00   -8.3682004748E+00   -8.3507303461E+00
   -8.3333329456E+00   -8.3160079041E+00   -8.2987547753E+00   -8.2815731128E+00
   -8.2644624701E+00   -8.2474223326E+00   -8.2304522874E+00   -8.2135519555E+00
   -8.1967209113E+00   -8.1799587291E+00   -8.1632649834E+00   -8.1466391616E+00
   -8.1300809155E+00   -8.1135898639E+00   -8.0971656010E+00   -8.0808077210E+00
   -8.0645158181E+00   -8.0482893897E+00   -8.0321281321E+00   -8.0160316699E+00
   -7.9999996160E+00   -7.9840315837E+00   -7.9681271860E+00   -7.9522859366E+00
   -7.9365075588E+00   -7.9207916898E+00   -7.9051379605E+00   -7.8895460023E+00
   -7.8740154462E+00   -7.8585458285E+00   -7.8431368824E+00   -7.8277882645E+00
   -7.8124996232E+00   -7.7972706067E+00   -7.7821008635E+00   -7.7669899585E+00
   -7.7519376185E+00   -7.7369435262E+00   -7.7220073464E+00   -7.7071287437E+00
   -7.6923073829E+00   -7.6775428639E+00   -7.6628348914E+00   -7.6481831804E+00
   -7.6335874112E+00   -7.6190472643E+00   -7.6045624200E+00   -7.5901325186E+00
   -7.5757572289E+00   -7.5614363034E+00   -7.5471694374E+00   -7.5329563261E+00
   -7.5187966648E+00   -7.5046901400E+00   -7.4906363714E+00   -7.4766351537E+00
   -7.4626861962E+00   -7.4487892084E+00   -7.4349438996E+00   -7.4211499795E+00
   -7.4074070930E+00   -7.3937149947E+00   -7.3800734359E+00   -7.3664821395E+00
   -7.3529408286E+00   -7.3394492260E+00   -7.3260070345E+00   -7.3126139303E+00
   -7.2992697188E+00   -7.2859741361E+00   -7.2727269180E+00   -7.2595278003E+00
   -7.2463765189E+00   -7.2332727504E+00   -7.2202162690E+00   -7.2072068520E+00
   -7.1942442474E+00   -7.1813282035E+00   -7.1684584685E+00   -7.1556347865E+00
   -7.1428568290E+00   -7.1301244369E+00   -7.1174373701E+00   -7.1047953886E+00
   -7.0921982523E+00   -7.0796457211E+00   -7.0671375262E+00   -7.0546734043E+00
   -7.0422531820E+00   -7.0298766303E+00   -7.0175435205E+00   -7.0052536235E+00
   -6.9930067106E+00   -6.9808025074E+00   -6.9686407989E+00   -6.9565214041E+00
   -6.9444441047E+00   -6.9324086824E+00   -6.9204149190E+00   -6.9084625964E+00
   -6.8965514415E+00   -6.8846812718E+00   -6.8728519050E+00   -6.8610631330E+00
   -6.8493147477E+00   -6.8376065411E+00   -6.8259383051E+00   -6.8143097746E+00
   -6.8027207841E+00   -6.7911711565E+00   -6.7796606935E+00   -6.7681891968E+00
   -6.7567564679E+00   -6.7453623085E+00   -6.7340064672E+00   -6.7226887812E+00
   -6.7114090851E+00   -6.7001671897E+00   -6.6889629059E+00   -6.6777960445E+00
   -6.6666664165E+00   -6.6555737895E+00
  </PP_LOCAL>
 <PP_NONLOCAL>
   <PP_BETA.1
       type="real"
       size=" 602"
       columns="4"
       index="1"
       angular_momentum="0"
       cutoff_radius_index=" 308"
       cutoff_radius="    3.0700000000E+00" >
    0.0000000000E+00    1.3307019337E-02    2.6633906080E-02    4.0000423691E-02
    5.3426128170E-02    6.6930265409E-02    8.0531669833E-02    9.4248664745E-02
    1.0809896481E-01    1.2209958107E-01    1.3626672885E-01    1.5061573905E-01
    1.6516097303E-01    1.7991574159E-01    1.9489222827E-01    2.1010141739E-01
    2.2555302702E-01    2.4125544726E-01    2.5721568399E-01    2.7343930844E-01
    2.8993041263E-01    3.0669157107E-01    3.2372380864E-01    3.4102657498E-01
    3.5859772539E-01    3.7643350843E-01    3.9452855995E-01    4.1287590413E-01
    4.3146696100E-01    4.5029156058E-01    4.6933796373E-01    4.8859288942E-01
    5.0804154847E-01    5.2766768334E-01    5.4745361418E-01    5.6738029073E-01
    5.8742734982E-01    6.0757317783E-01    6.2779497992E-01    6.4806885186E-01
    6.6836985787E-01    6.8867211243E-01    7.0894886584E-01    7.2917259372E-01
    7.4931508880E-01    7.6934755665E-01    7.8924071305E-01    8.0896488361E-01
    8.2849010496E-01    8.4778622568E-01    8.6682300818E-01    8.8557024143E-01
    9.0399783215E-01    9.2207590771E-01    9.3977493710E-01    9.5706579725E-01
    9.7391991275E-01    9.9030931046E-01    1.0062067559E+00    1.0215857964E+00
    1.0364209075E+00    1.0506875114E+00    1.0643621186E+00    1.0774223705E+00
    1.0898470911E+00    1.1016164219E+00    1.1127118219E+00    1.1231161306E+00