<UPF version="2.0.1">
  <PP_INFO>

 Mg_ONCV_PBE_FR-1.0.upf

 This pseudopotential file has been produced using the code
 ONCVPSP  (Optimized Norm-Conservinng Vanderbilt PSeudopotential)
 fully-relativistic version 2.1.1, 03/26/2014 by D. R. Hamann
 The code is available through a link at URL www.mat-simresearch.com.
 Documentation with the package provides a full description of the
 input data below.

 While it is not required under the terms of the GNU GPL, it is
 suggested that you cite D. R. Hamann, Phys. Rev. B 88, 085117 (2013)
 in any publication using these pseudopotentials.

 -----

 This pseudopotential was produced with the SG15 1.0 and/or 1.1
 parameter sets, the Schlipf-Gygi norm-conserving pseudopotential
 library. For details of the construction and testing of the
 pseudopotential please refer to:

 M. Schlipf, F. Gygi, Comp. Phys. Comm. 196, 36 (2015)
 http://dx.doi.org/10.1016/j.cpc.2015.05.011

 The above authors kindly ask that you include this reference in all
 publications associated to this pseudopotential.

 Please note this fully-relativistic version does not employ the
 above self-consistent procedure at the fully-relativistic level.

 -----

 This pseudopotential was produced by Peter Scherpelz for the purpose
 of performing GW calculations with spin-orbit-coupling. Please see
 the publication:

 P. Scherpelz, M. Govoni, I. Hamada, G. Galli; J. Chem. Theory Comput. (2016)
 http://dx.doi.org/10.1021/acs.jctc.6b00114

 If you use these pseudopotentials in your work, we also kindly ask
 that you cite the above publication.

 -----

 This work is licensed under the Creative Commons Attribution-ShareAlike 
 4.0 International License. To view a copy of this license, visit 
 http://creativecommons.org/licenses/by-sa/4.0/ or send a letter to 
 Creative Commons, PO Box 1866, Mountain View, CA 94042, USA.

 The SG15 library is Copyright 2015 The Regents of the University of
 California.  Further modifications of these files are Copyright 2016
 Peter Scherpelz.

    <PP_INPUTFILE>
# ATOM AND REFERENCE CONFIGURATION
# atsym  z    nc    nv    iexc   psfile
  Mg 12.00     1     3     4      upf
#
#   n    l    f        energy (Ha)
    1    0    2.00
    2    0    2.00
    2    1    6.00
    3    0    2.00
#
# PSEUDOPOTENTIAL AND OPTIMIZATION
# lmax
    1
#
#   l,   rc,     ep,   ncon, nbas, qcut
    0    1.23   -2.93    5    8   10.54
    1    2.49   -1.71    5    8    6.93
#
# LOCAL POTENTIAL
# lloc, lpopt,  rc(5),   dvloc0
    4    5      0.86       0.00
#
# VANDERBILT-KLEINMAN-BYLANDER PROJECTORs
# l, nproj, debl
    0    2    2.7612
    1    2    1.6605
#
# MODEL CORE CHARGE
# icmod, fcfact
    0    0.00
#
# LOG DERIVATIVE ANALYSIS
# epsh1, epsh2, depsh
   -5.00    3.00    0.02
#
# OUTPUT GRID
# rlmax, drl
    6.00    0.01
#
# TEST CONFIGURATIONS
# ncnf
    0
# nvcnf
#   n    l    f
    </PP_INPUTFILE>
  </PP_INFO>
  <!--                               -->
  <!-- END OF HUMAN READABLE SECTION -->
  <!--                               -->
    <PP_HEADER
       generated="Generated using ONCVPSP code by D. R. Hamann"
       author="anonymous"
       date="150703"
       comment=""
       element="Mg"
       pseudo_type="NC"
       relativistic="full"
       is_ultrasoft="F"
       is_paw="F"
       is_coulomb="F"
       has_so="T"
       has_wfc="F"
       has_gipaw="F"
       core_correction="F"
       functional="PBE"
       z_valence="   10.00"
       total_psenergy="  -5.42711497470E+01"
       rho_cutoff="   6.01000000000E+00"
       l_max="1"
       l_local="-1"
       mesh_size="   602"
       number_of_wfc="0"
       number_of_proj="6"/>
 <PP_MESH>
   <PP_R type="real"  size=" 602" columns="8">
    0.0000    0.0100    0.0200    0.0300    0.0400    0.0500    0.0600    0.0700
    0.0800    0.0900    0.1000    0.1100    0.1200    0.1300    0.1400    0.1500
    0.1600    0.1700    0.1800    0.1900    0.2000    0.2100    0.2200    0.2300
    0.2400    0.2500    0.2600    0.2700    0.2800    0.2900    0.3000    0.3100
    0.3200    0.3300    0.3400    0.3500    0.3600    0.3700    0.3800    0.3900
    0.4000    0.4100    0.4200    0.4300    0.4400    0.4500    0.4600    0.4700
    0.4800    0.4900    0.5000    0.5100    0.5200    0.5300    0.5400    0.5500
    0.5600    0.5700    0.5800    0.5900    0.6000    0.6100    0.6200    0.6300
    0.6400    0.6500    0.6600    0.6700    0.6800    0.6900    0.7000    0.7100
    0.7200    0.7300    0.7400    0.7500    0.7600    0.7700    0.7800    0.7900
    0.8000    0.8100    0.8200    0.8300    0.8400    0.8500    0.8600    0.8700
    0.8800    0.8900    0.9000    0.9100    0.9200    0.9300    0.9400    0.9500
    0.9600    0.9700    0.9800    0.9900    1.0000    1.0100    1.0200    1.0300
    1.0400    1.0500    1.0600    1.0700    1.0800    1.0900    1.1000    1.1100
    1.1200    1.1300    1.1400    1.1500    1.1600    1.1700    1.1800    1.1900
    1.2000    1.2100    1.2200    1.2300    1.2400    1.2500    1.2600    1.2700
    1.2800    1.2900    1.3000    1.3100    1.3200    1.3300    1.3400    1.3500
    1.3600    1.3700    1.3800    1.3900    1.4000    1.4100    1.4200    1.4300
    1.4400    1.4500    1.4600    1.4700    1.4800    1.4900    1.5000    1.5100
    1.5200    1.5300    1.5400    1.5500    1.5600    1.5700    1.5800    1.5900
    1.6000    1.6100    1.6200    1.6300    1.6400    1.6500    1.6600    1.6700
    1.6800    1.6900    1.7000    1.7100    1.7200    1.7300    1.7400    1.7500
    1.7600    1.7700    1.7800    1.7900    1.8000    1.8100    1.8200    1.8300
    1.8400    1.8500    1.8600    1.8700    1.8800    1.8900    1.9000    1.9100
    1.9200    1.9300    1.9400    1.9500    1.9600    1.9700    1.9800    1.9900
    2.0000    2.0100    2.0200    2.0300    2.0400    2.0500    2.0600    2.0700
    2.0800    2.0900    2.1000    2.1100    2.1200    2.1300    2.1400    2.1500
    2.1600    2.1700    2.1800    2.1900    2.2000    2.2100    2.2200    2.2300
    2.2400    2.2500    2.2600    2.2700    2.2800    2.2900    2.3000    2.3100
    2.3200    2.3300    2.3400    2.3500    2.3600    2.3700    2.3800    2.3900
    2.4000    2.4100    2.4200    2.4300    2.4400    2.4500    2.4600    2.4700
    2.4800    2.4900    2.5000    2.5100    2.5200    2.5300    2.5400    2.5500
    2.5600    2.5700    2.5800    2.5900    2.6000    2.6100    2.6200    2.6300
    2.6400    2.6500    2.6600    2.6700    2.6800    2.6900    2.7000    2.7100
    2.7200    2.7300    2.7400    2.7500    2.7600    2.7700    2.7800    2.7900
    2.8000    2.8100    2.8200    2.8300    2.8400    2.8500    2.8600    2.8700
    2.8800    2.8900    2.9000    2.9100    2.9200    2.9300    2.9400    2.9500
    2.9600    2.9700    2.9800    2.9900    3.0000    3.0100    3.0200    3.0300
    3.0400    3.0500    3.0600    3.0700    3.0800    3.0900    3.1000    3.1100
    3.1200    3.1300    3.1400    3.1500    3.1600    3.1700    3.1800    3.1900
    3.2000    3.2100    3.2200    3.2300    3.2400    3.2500    3.2600    3.2700
    3.2800    3.2900    3.3000    3.3100    3.3200    3.3300    3.3400    3.3500
    3.3600    3.3700    3.3800    3.3900    3.4000    3.4100    3.4200    3.4300
    3.4400    3.4500    3.4600    3.4700    3.4800    3.4900    3.5000    3.5100
    3.5200    3.5300    3.5400    3.5500    3.5600    3.5700    3.5800    3.5900
    3.6000    3.6100    3.6200    3.6300    3.6400    3.6500    3.6600    3.6700
    3.6800    3.6900    3.7000    3.7100    3.7200    3.7300    3.7400    3.7500
    3.7600    3.7700    3.7800    3.7900    3.8000    3.8100    3.8200    3.8300
    3.8400    3.8500    3.8600    3.8700    3.8800    3.8900    3.9000    3.9100
    3.9200    3.9300    3.9400    3.9500    3.9600    3.9700    3.9800    3.9900
    4.0000    4.0100    4.0200    4.0300    4.0400    4.0500    4.0600    4.0700
    4.0800    4.0900    4.1000    4.1100    4.1200    4.1300    4.1400    4.1500
    4.1600    4.1700    4.1800    4.1900    4.2000    4.2100    4.2200    4.2300
    4.2400    4.2500    4.2600    4.2700    4.2800    4.2900    4.3000    4.3100
    4.3200    4.3300    4.3400    4.3500    4.3600    4.3700    4.3800    4.3900
    4.4000    4.4100    4.4200    4.4300    4.4400    4.4500    4.4600    4.4700
    4.4800    4.4900    4.5000    4.5100    4.5200    4.5300    4.5400    4.5500
    4.5600    4.5700    4.5800    4.5900    4.6000    4.6100    4.6200    4.6300
    4.6400    4.6500    4.6600    4.6700    4.6800    4.6900    4.7000    4.7100
    4.7200    4.7300    4.7400    4.7500    4.7600    4.7700    4.7800    4.7900
    4.8000    4.8100    4.8200    4.8300    4.8400    4.8500    4.8600    4.8700
    4.8800    4.8900    4.9000    4.9100    4.9200    4.9300    4.9400    4.9500
    4.9600    4.9700    4.9800    4.9900    5.0000    5.0100    5.0200    5.0300
    5.0400    5.0500    5.0600    5.0700    5.0800    5.0900    5.1000    5.1100
    5.1200    5.1300    5.1400    5.1500    5.1600    5.1700    5.1800    5.1900
    5.2000    5.2100    5.2200    5.2300    5.2400    5.2500    5.2600    5.2700
    5.2800    5.2900    5.3000    5.3100    5.3200    5.3300    5.3400    5.3500
    5.3600    5.3700    5.3800    5.3900    5.4000    5.4100    5.4200    5.4300
    5.4400    5.4500    5.4600    5.4700    5.4800    5.4900    5.5000    5.5100
    5.5200    5.5300    5.5400    5.5500    5.5600    5.5700    5.5800    5.5900
    5.6000    5.6100    5.6200    5.6300    5.6400    5.6500    5.6600    5.6700
    5.6800    5.6900    5.7000    5.7100    5.7200    5.7300    5.7400    5.7500
    5.7600    5.7700    5.7800    5.7900    5.8000    5.8100    5.8200    5.8300
    5.8400    5.8500    5.8600    5.8700    5.8800    5.8900    5.9000    5.9100
    5.9200    5.9300    5.9400    5.9500    5.9600    5.9700    5.9800    5.9900
    6.0000    6.0100
   </PP_R>
   <PP_RAB type="real"  size=" 602" columns="8">
    0.0100    0.0100    0.0100    0.0100    0.0100    0.0100    0.0100    0.0100
    0.0100    0.0100    0.0100    0.0100    0.0100    0.0100    0.0100    0.0100
    0.0100    0.0100    0.0100    0.0100    0.0100    0.0100    0.0100    0.0100
    0.0100    0.0100    0.0100    0.0100    0.0100    0.0100    0.0100    0.0100
    0.0100    0.0100    0.0100    0.0100    0.0100    0.0100    0.0100    0.0100
    0.0100    0.0100    0.0100    0.0100    0.0100    0.0100    0.0100    0.0100
    0.0100    0.0100    0.0100    0.0100    0.0100    0.0100    0.0100    0.0100
    0.0100    0.0100    0.0100    0.0100    0.0100    0.0100    0.0100    0.0100
    0.0100    0.0100    0.0100    0.0100    0.0100    0.0100    0.0100    0.0100
    0.0100    0.0100    0.0100    0.0100    0.0100    0.0100    0.0100    0.0100
    0.0100    0.0100    0.0100    0.0100    0.0100    0.0100    0.0100    0.0100
    0.0100    0.0100    0.0100    0.0100    0.0100    0.0100    0.0100    0.0100
    0.0100    0.0100    0.0100    0.0100    0.0100    0.0100    0.0100    0.0100
    0.0100    0.0100    0.0100    0.0100    0.0100    0.0100    0.0100    0.0100
    0.0100    0.0100    0.0100    0.0100    0.0100    0.0100    0.0100    0.0100
    0.0100    0.0100    0.0100    0.0100    0.0100    0.0100    0.0100    0.0100
    0.0100    0.0100    0.0100    0.0100    0.0100    0.0100    0.0100    0.0100
    0.0100    0.0100    0.0100    0.0100    0.0100    0.0100    0.0100    0.0100
    0.0100    0.0100    0.0100    0.0100    0.0100    0.0100    0.0100    0.0100
    0.0100    0.0100    0.0100    0.0100    0.0100    0.0100    0.0100    0.0100
    0.0100    0.0100    0.0100    0.0100    0.0100    0.0100    0.0100    0.0100
    0.0100    0.0100    0.0100    0.0100    0.0100    0.0100    0.0100    0.0100
    0.0100    0.0100    0.0100    0.0100    0.0100    0.0100    0.0100    0.0100
    0.0100    0.0100    0.0100    0.0100    0.0100    0.0100    0.0100    0.0100
    0.0100    0.0100    0.0100    0.0100    0.0100    0.0100    0.0100    0.0100
    0.0100    0.0100    0.0100    0.0100    0.0100    0.0100    0.0100    0.0100
    0.0100    0.0100    0.0100    0.0100    0.0100    0.0100    0.0100    0.0100
    0.0100    0.0100    0.0100    0.0100    0.0100    0.0100    0.0100    0.0100
    0.0100    0.0100    0.0100    0.0100    0.0100    0.0100    0.0100    0.0100
    0.0100    0.0100    0.0100    0.0100    0.0100    0.0100    0.0100    0.0100
    0.0100    0.0100    0.0100    0.0100    0.0100    0.0100    0.0100    0.0100
    0.0100    0.0100    0.0100    0.0100    0.0100    0.0100    0.0100    0.0100
    0.0100    0.0100    0.0100    0.0100    0.0100    0.0100    0.0100    0.0100
    0.0100    0.0100    0.0100    0.0100    0.0100    0.0100    0.0100    0.0100
    0.0100    0.0100    0.0100    0.0100    0.0100    0.0100    0.0100    0.0100
    0.0100    0.0100    0.0100    0.0100    0.0100    0.0100    0.0100    0.0100
    0.0100    0.0100    0.0100    0.0100    0.0100    0.0100    0.0100    0.0100
    0.0100    0.0100    0.0100    0.0100    0.0100    0.0100    0.0100    0.0100
    0.0100    0.0100    0.0100    0.0100    0.0100    0.0100    0.0100    0.0100
    0.0100    0.0100    0.0100    0.0100    0.0100    0.0100    0.0100    0.0100
    0.0100    0.0100    0.0100    0.0100    0.0100    0.0100    0.0100    0.0100
    0.0100    0.0100    0.0100    0.0100    0.0100    0.0100    0.0100    0.0100
    0.0100    0.0100    0.0100    0.0100    0.0100    0.0100    0.0100    0.0100
    0.0100    0.0100    0.0100    0.0100    0.0100    0.0100    0.0100    0.0100
    0.0100    0.0100    0.0100    0.0100    0.0100    0.0100    0.0100    0.0100
    0.0100    0.0100    0.0100    0.0100    0.0100    0.0100    0.0100    0.0100
    0.0100    0.0100    0.0100    0.0100    0.0100    0.0100    0.0100    0.0100
    0.0100    0.0100    0.0100    0.0100    0.0100    0.0100    0.0100    0.0100
    0.0100    0.0100    0.0100    0.0100    0.0100    0.0100    0.0100    0.0100
    0.0100    0.0100    0.0100    0.0100    0.0100    0.0100    0.0100    0.0100
    0.0100    0.0100    0.0100    0.0100    0.0100    0.0100    0.0100    0.0100
    0.0100    0.0100    0.0100    0.0100    0.0100    0.0100    0.0100    0.0100
    0.0100    0.0100    0.0100    0.0100    0.0100    0.0100    0.0100    0.0100
    0.0100    0.0100    0.0100    0.0100    0.0100    0.0100    0.0100    0.0100
    0.0100    0.0100    0.0100    0.0100    0.0100    0.0100    0.0100    0.0100
    0.0100    0.0100    0.0100    0.0100    0.0100    0.0100    0.0100    0.0100
    0.0100    0.0100    0.0100    0.0100    0.0100    0.0100    0.0100    0.0100
    0.0100    0.0100    0.0100    0.0100    0.0100    0.0100    0.0100    0.0100
    0.0100    0.0100    0.0100    0.0100    0.0100    0.0100    0.0100    0.0100
    0.0100    0.0100    0.0100    0.0100    0.0100    0.0100    0.0100    0.0100
    0.0100    0.0100    0.0100    0.0100    0.0100    0.0100    0.0100    0.0100
    0.0100    0.0100    0.0100    0.0100    0.0100    0.0100    0.0100    0.0100
    0.0100    0.0100    0.0100    0.0100    0.0100    0.0100    0.0100    0.0100
    0.0100    0.0100    0.0100    0.0100    0.0100    0.0100    0.0100    0.0100
    0.0100    0.0100    0.0100    0.0100    0.0100    0.0100    0.0100    0.0100
    0.0100    0.0100    0.0100    0.0100    0.0100    0.0100    0.0100    0.0100
    0.0100    0.0100    0.0100    0.0100    0.0100    0.0100    0.0100    0.0100
    0.0100    0.0100    0.0100    0.0100    0.0100    0.0100    0.0100    0.0100
    0.0100    0.0100    0.0100    0.0100    0.0100    0.0100    0.0100    0.0100
    0.0100    0.0100    0.0100    0.0100    0.0100    0.0100    0.0100    0.0100
    0.0100    0.0100    0.0100    0.0100    0.0100    0.0100    0.0100    0.0100
    0.0100    0.0100    0.0100    0.0100    0.0100    0.0100    0.0100    0.0100
    0.0100    0.0100    0.0100    0.0100    0.0100    0.0100    0.0100    0.0100
    0.0100    0.0100    0.0100    0.0100    0.0100    0.0100    0.0100    0.0100
    0.0100    0.0100    0.0100    0.0100    0.0100    0.0100    0.0100    0.0100
    0.0100    0.0100
   </PP_RAB>
 </PP_MESH>
  <PP_LOCAL type="real"  size=" 602" columns="4">
   -4.5118319844E+01   -4.5112714122E+01   -4.5095874147E+01   -4.5067822240E+01
   -4.5028580721E+01   -4.4978181298E+01   -4.4916665476E+01   -4.4844085007E+01
   -4.4760502348E+01   -4.4665991076E+01   -4.4560636234E+01   -4.4444534577E+01
   -4.4317794693E+01   -4.4180536999E+01   -4.4032893609E+01   -4.3875008081E+01
   -4.3707035060E+01   -4.3529139836E+01   -4.3341497835E+01   -4.3144294074E+01
   -4.2937722582E+01   -4.2721985828E+01   -4.2497294154E+01   -4.2263865236E+01
   -4.2021923579E+01   -4.1771700050E+01   -4.1513431465E+01   -4.1247360212E+01
   -4.0973733930E+01   -4.0692805234E+01   -4.0404831480E+01   -4.0110074573E+01
   -3.9808800806E+01   -3.9501280728E+01   -3.9187789058E+01   -3.8868604570E+01
   -3.8544010055E+01   -3.8214292223E+01   -3.7879741659E+01   -3.7540652746E+01
   -3.7197323578E+01   -3.6850055860E+01   -3.6499154787E+01   -3.6144928890E+01
   -3.5787689854E+01   -3.5427752293E+01   -3.5065433495E+01   -3.4701053108E+01
   -3.4334932803E+01   -3.3967395864E+01   -3.3598766772E+01   -3.3229370695E+01
   -3.2859532966E+01   -3.2489578510E+01   -3.2119831222E+01   -3.1750613336E+01
   -3.1382244684E+01   -3.1015042082E+01   -3.0649318427E+01   -3.0285382123E+01
   -2.9923536106E+01   -2.9564077147E+01   -2.9207295131E+01   -2.8853471904E+01
   -2.8502880852E+01   -2.8155785903E+01   -2.7812440462E+01   -2.7473086933E+01
   -2.7137955956E+01   -2.6807265073E+01   -2.6481218273E+01   -2.6160005186E+01
   -2.5843800221E+01   -2.5532761975E+01   -2.5227031784E+01   -2.4926733466E+01
   -2.4631972428E+01   -2.4342834822E+01   -2.4059386743E+01   -2.3781673413E+01
   -2.3509718376E+01   -2.3243522673E+01   -2.2983064021E+01   -2.2728295981E+01
   -2.2479147114E+01   -2.2235520133E+01   -2.1997290972E+01   -2.1764308676E+01
   -2.1536410870E+01   -2.1313441552E+01   -2.1095254026E+01   -2.0881710121E+01
   -2.0672679523E+01   -2.0468039167E+01   -2.0267672651E+01   -2.0071469669E+01
   -1.9879325449E+01   -1.9691140171E+01   -1.9506818463E+01   -1.9326269076E+01
   -1.9149404042E+01   -1.8976138273E+01   -1.8806389050E+01   -1.8640075513E+01
   -1.8477118158E+01   -1.8317438483E+01   -1.8160958285E+01   -1.8007599296E+01
   -1.7857282789E+01   -1.7709929304E+01   -1.7565457908E+01   -1.7423786195E+01
   -1.7284830014E+01   -1.7148503574E+01   -1.7014718519E+01   -1.6883384676E+01
   -1.6754410088E+01   -1.6627701151E+01   -1.6503162459E+01   -1.6380697970E+01
   -1.6260211091E+01   -1.6141605186E+01   -1.6024784758E+01   -1.5909655524E+01
   -1.5796125199E+01   -1.5684105548E+01   -1.5573511165E+01   -1.5464260513E+01
   -1.5356278957E+01   -1.5249495429E+01   -1.5143844740E+01   -1.5039270098E+01
   -1.4935718007E+01   -1.4833143242E+01   -1.4731507767E+01   -1.4630776121E+01
   -1.4530923126E+01   -1.4431926632E+01   -1.4333768785E+01   -1.4236439060E+01
   -1.4139927596E+01   -1.4044230315E+01   -1.3949344847E+01   -1.3855270633E+01
   -1.3762010031E+01   -1.3669565311E+01   -1.3577940699E+01   -1.3487140452E+01
   -1.3397169451E+01   -1.3308033289E+01   -1.3219737365E+01   -1.3132288984E+01
   -1.3045694904E+01   -1.2959965142E+01   -1.2875110125E+01   -1.2791143889E+01
   -1.2708083709E+01   -1.2625949506E+01   -1.2544768848E+01   -1.2464569627E+01
   -1.2385392422E+01   -1.2307275114E+01   -1.2230271929E+01   -1.2154432117E+01
   -1.2079820560E+01   -1.2006497751E+01   -1.1934531284E+01   -1.1863989941E+01
   -1.1794930872E+01   -1.1727423593E+01   -1.1661497413E+01   -1.1597211133E+01
   -1.1534547605E+01   -1.1473536775E+01   -1.1414104111E+01   -1.1356229340E+01
   -1.1299781437E+01   -1.1244672742E+01   -1.1190730369E+01   -1.1137797224E+01
   -1.1085681270E+01   -1.1034179401E+01   -1.0983100584E+01   -1.0932244851E+01
   -1.0881433021E+01   -1.0830526219E+01   -1.0779363078E+01   -1.0727902596E+01
   -1.0676017336E+01   -1.0623746545E+01   -1.0571052607E+01   -1.0517992670E+01
   -1.0464620183E+01   -1.0411001816E+01   -1.0357237622E+01   -1.0303411816E+01
   -1.0249621621E+01   -1.0195968708E+01   -1.0142528559E+01   -1.0089389182E+01
   -1.0036620405E+01   -9.9842718832E+00   -9.9324139849E+00   -9.8810633102E+00
   -9.8302661432E+00   -9.7800364657E+00   -9.7303862038E+00   -9.6813321439E+00
   -9.6328651881E+00   -9.5849918028E+00   -9.5377015197E+00   -9.4909856448E+00
   -9.4448365780E+00   -9.3992391921E+00   -9.3541822419E+00   -9.3096518059E+00
   -9.2656338681E+00   -9.2221147140E+00   -9.1790812451E+00   -9.1365194343E+00
   -9.0944168425E+00   -9.0527616921E+00   -9.0115403921E+00   -8.9707433587E+00
   -8.9303591928E+00   -8.8903769870E+00   -8.8507882371E+00   -8.8115824969E+00
   -8.7727514692E+00   -8.7342874084E+00   -8.6961809274E+00   -8.6584258035E+00
   -8.6210147273E+00   -8.5839400297E+00   -8.5471963395E+00   -8.5107770005E+00
   -8.4746759015E+00   -8.4388881675E+00   -8.4034078331E+00   -8.3682299754E+00
   -8.3333501654E+00   -8.2987630731E+00   -8.2644646678E+00   -8.2304509323E+00
   -8.1967171131E+00   -8.1632598435E+00   -8.1300754893E+00   -8.0971598328E+00
   -8.0645099665E+00   -8.0321225936E+00   -7.9999940290E+00   -7.9681215564E+00
   -7.9365021226E+00   -7.9051324566E+00   -7.8740098683E+00   -7.8431314574E+00
   -7.8124941500E+00   -7.7820953377E+00   -7.7519322531E+00   -7.7220019500E+00
   -7.6923019309E+00   -7.6628295727E+00   -7.6335820826E+00   -7.6045570347E+00
   -7.5757519471E+00   -7.5471641749E+00   -7.5187913451E+00   -7.4906311179E+00
   -7.4626809979E+00   -7.4349386448E+00   -7.4074018601E+00   -7.3800682996E+00
   -7.3529356379E+00   -7.3260018159E+00   -7.2992646417E+00   -7.2727217908E+00
   -7.2463713390E+00   -7.2202112059E+00   -7.1942391825E+00   -7.1684533488E+00
   -7.1428517624E+00   -7.1174323652E+00   -7.0921931938E+00   -7.0671324510E+00
   -7.0422482333E+00   -7.0175385233E+00   -6.9930016618E+00   -6.9686358460E+00
   -6.9444391672E+00   -6.9204099285E+00   -6.8965464652E+00   -6.8728470236E+00
   -6.8493098169E+00   -6.8259333251E+00   -6.8027159095E+00   -6.7796558214E+00
   -6.7567515439E+00   -6.7340015568E+00   -6.7114042674E+00   -6.6889580403E+00
   -6.6666615021E+00   -6.6445131631E+00   -6.6225114430E+00   -6.6006549293E+00
   -6.5789422573E+00   -6.5573720058E+00   -6.5359426212E+00   -6.5146528831E+00
   -6.4935014374E+00   -6.4724868809E+00   -6.4516078395E+00   -6.4308631122E+00
   -6.4102514079E+00   -6.3897713485E+00   -6.3694217188E+00   -6.3492013370E+00
   -6.3291089722E+00   -6.3091432784E+00   -6.2893031760E+00   -6.2695875059E+00
   -6.2499950809E+00   -6.2305246336E+00   -6.2111751572E+00   -6.1919455331E+00
   -6.1728346083E+00   -6.1538412192E+00   -6.1349643907E+00   -6.1162030561E+00
   -6.0975561014E+00   -6.0790224487E+00   -6.0606011575E+00   -6.0422912108E+00
   -6.0240915372E+00   -6.0060011275E+00   -5.9880190791E+00   -5.9701444224E+00
   -5.9523761320E+00   -5.9347132514E+00   -5.9171549193E+00   -5.8997002111E+00
   -5.8823481510E+00   -5.8650978198E+00   -5.8479484007E+00   -5.8308990122E+00
   -5.8139487310E+00   -5.7970966612E+00   -5.7803420334E+00   -5.7636840073E+00
   -5.7471217153E+00   -5.7306542713E+00   -5.7142809561E+00   -5.6980009685E+00
   -5.6818134997E+00   -5.6657176616E+00   -5.6497127870E+00   -5.6337981121E+00
   -5.6179728731E+00   -5.6022362188E+00   -5.5865874859E+00   -5.5710259625E+00
   -5.5555509205E+00   -5.5401615725E+00   -5.5248572241E+00   -5.5096372252E+00
   -5.4945008813E+00   -5.4794474729E+00   -5.4644762642E+00   -5.4495866675E+00
   -5.4347780208E+00   -5.4200496622E+00   -5.4054008462E+00   -5.3908310078E+00
   -5.3763395288E+00   -5.3619257780E+00   -5.3475890819E+00   -5.3333288109E+00
   -5.3191444167E+00   -5.3050352977E+00   -5.2910008520E+00   -5.2770403909E+00
   -5.2631534222E+00   -5.2493393762E+00   -5.2355976792E+00   -5.2219277188E+00
   -5.2083289181E+00   -5.1948007831E+00   -5.1813427666E+00   -5.1679543219E+00
   -5.1546348288E+00   -5.1413838190E+00   -5.1282007863E+00   -5.1150852092E+00
   -5.1020365498E+00   -5.0890542375E+00   -5.0761378447E+00   -5.0632868743E+00
   -5.0505008292E+00   -5.0377791709E+00   -5.0251214102E+00   -5.0125271172E+00
   -4.9999958179E+00   -4.9875270383E+00   -4.9751202445E+00   -4.9627750149E+00
   -4.9504909207E+00   -4.9382675100E+00   -4.9261043309E+00   -4.9140008589E+00
   -4.9019567261E+00   -4.8899715089E+00   -4.8780447765E+00   -4.8661760950E+00
   -4.8543649627E+00   -4.8426110430E+00   -4.8309139251E+00   -4.8192731984E+00
   -4.8076884436E+00   -4.7961591922E+00   -4.7846851203E+00   -4.7732658362E+00
   -4.7619009484E+00   -4.7505900563E+00   -4.7393327133E+00   -4.7281286115E+00
   -4.7169773776E+00   -4.7058786382E+00   -4.6948320150E+00   -4.6838370728E+00
   -4.6728935229E+00   -4.6620010096E+00   -4.6511591766E+00   -4.6403676682E+00
   -4.6296260607E+00   -4.6189340777E+00   -4.6082913833E+00   -4.5976976379E+00
   -4.5871525022E+00   -4.5766555822E+00   -4.5662065894E+00   -4.5558052160E+00
   -4.5454511381E+00   -4.5351440324E+00   -4.5248835375E+00   -4.5146693440E+00
   -4.5045011747E+00   -4.4943787212E+00   -4.4843016749E+00   -4.4742697105E+00
   -4.4642824895E+00   -4.4543397678E+00   -4.4444412512E+00   -4.4345866457E+00
   -4.4247756570E+00   -4.4150079336E+00   -4.4052832432E+00   -4.3956013128E+00
   -4.3859618619E+00   -4.3763646102E+00   -4.3668092474E+00   -4.3572954940E+00
   -4.3478231173E+00   -4.3383918498E+00   -4.3290014242E+00   -4.3196515731E+00
   -4.3103419693E+00   -4.3010724154E+00   -4.2918426581E+00   -4.2826524426E+00
   -4.2735015139E+00   -4.2643895916E+00   -4.2553164152E+00   -4.2462817774E+00
   -4.2372854353E+00   -4.2283271457E+00   -4.2194066656E+00   -4.2105237051E+00
   -4.2016780641E+00   -4.1928695237E+00   -4.1840978519E+00   -4.1753628172E+00
   -4.1666641818E+00   -4.1580016692E+00   -4.1493751102E+00   -4.1407842838E+00
   -4.1322289691E+00   -4.1237089452E+00   -4.1152239714E+00   -4.1067738126E+00
   -4.0983582953E+00   -4.0899772091E+00   -4.0816303432E+00   -4.0733174871E+00
   -4.0650384013E+00   -4.0567928818E+00   -4.0485807548E+00   -4.0404018194E+00
   -4.0322558750E+00   -4.0241427206E+00   -4.0160621220E+00   -4.0080138964E+00
   -3.9999978734E+00   -3.9920138616E+00   -3.9840616693E+00   -3.9761411053E+00
   -3.9682519436E+00   -3.9603940140E+00   -3.9525671528E+00   -3.9447711773E+00
   -3.9370059052E+00   -3.9292711537E+00   -3.9215667089E+00   -3.9138924044E+00
   -3.9062480865E+00   -3.8986335811E+00   -3.8910487144E+00   -3.8834933121E+00
   -3.8759671752E+00   -3.8684701330E+00   -3.8610020452E+00   -3.8535627459E+00
   -3.8461520691E+00   -3.8387698489E+00   -3.8314159041E+00   -3.8240900522E+00
   -3.8167921692E+00   -3.8095220968E+00   -3.8022796768E+00   -3.7950647511E+00
   -3.7878771590E+00   -3.7807166998E+00   -3.7735832679E+00   -3.7664767123E+00
   -3.7593968824E+00   -3.7523436273E+00   -3.7453167961E+00   -3.7383162046E+00
   -3.7313417266E+00   -3.7243932320E+00   -3.7174705770E+00   -3.7105736179E+00
   -3.7037022108E+00   -3.6968561979E+00   -3.6900354193E+00   -3.6832397699E+00
   -3.6764691127E+00   -3.6697233105E+00   -3.6630022262E+00   -3.6563057228E+00
   -3.6496336268E+00   -3.6429858341E+00   -3.6363622224E+00   -3.6297626610E+00
   -3.6231870193E+00   -3.6166351664E+00   -3.6101069609E+00   -3.6036022513E+00
   -3.5971209460E+00   -3.5906629204E+00   -3.5842280498E+00   -3.5778162096E+00
   -3.5714272752E+00   -3.5650610961E+00   -3.5587175599E+00   -3.5523965648E+00
   -3.5460979921E+00   -3.5398217228E+00   -3.5335676383E+00   -3.5273356197E+00
   -3.5211255117E+00   -3.5149372316E+00   -3.5087706713E+00   -3.5026257174E+00
   -3.4965022567E+00   -3.4904001760E+00   -3.4843193590E+00   -3.4782596581E+00
   -3.4722210029E+00   -3.4662032854E+00   -3.4602063976E+00   -3.4542302314E+00
   -3.4482746790E+00   -3.4423396247E+00   -3.4364249367E+00   -3.4305305443E+00
   -3.4246563444E+00   -3.4188022342E+00   -3.4129681107E+00   -3.4071538709E+00
   -3.4013594033E+00   -3.3955845841E+00   -3.3898293454E+00   -3.3840935891E+00
   -3.3783772170E+00   -3.3726801309E+00   -3.3670022327E+00   -3.3613434181E+00
   -3.3557035640E+00   -3.3500826085E+00   -3.3444804579E+00   -3.3388970188E+00
   -3.3333321976E+00   -3.3277859006E+00
  </PP_LOCAL>
 <PP_NONLOCAL>
   <PP_BETA.1
       type="real"
       size=" 602"
       columns="4"
       index="1"
       angular_momentum="0"
       cutoff_radius_index=" 254"
       cutoff_radius="    2.5300000000E+00" >
    0.0000000000E+00   -1.0013183337E-01   -1.9887632414E-01   -2.9487195966E-01
   -3.8680841712E-01   -4.7345099163E-01   -5.5366364710E-01   -6.2643026919E-01
   -6.9087373124E-01   -7.4627242278E-01   -7.9207393578E-01   -8.2790565354E-01
   -8.5358204302E-01   -8.6910850967E-01   -8.7468173613E-01   -8.7068648743E-01
   -8.5768893089E-01   -8.3642658168E-01   -8.0779504435E-01   -7.7283177478E-01
   -7.3269716069E-01   -6.8865323554E-01   -6.4204042314E-01   -5.9425269891E-01
   -5.4671164706E-01   -5.0083988172E-01   -4.5803420162E-01   -4.1963917169E-01
   -3.8692145196E-01   -3.6104535535E-01   -3.4305013448E-01   -3.3382939475E-01
   -3.3411303332E-01   -3.4445223818E-01   -3.6520682031E-01   -3.9653734606E-01
   -4.3839913382E-01   -4.9054149990E-01   -5.5250945782E-01   -6.2364974677E-01
   -7.0312038469E-01   -7.8990348653E-01   -8.8282137318E-01   -9.8055562181E-01
   -1.0816687239E+00   -1.1846279735E+00   -1.2878311675E+00   -1.3896336544E+00
   -1.4883761960E+00   -1.5824125227E+00   -1.6701395155E+00   -1.7500230807E+00
   -1.8206233276E+00   -1.8806232671E+00   -1.9288481322E+00   -1.9642859288E+00
   -1.9861086191E+00   -1.9936800414E+00   -1.9865752375E+00   -1.9645796880E+00
   -1.9276999713E+00   -1.8761605179E+00   -1.8103987157E+00   -1.7310635540E+00
   -1.6389983052E+00   -1.5352299516E+00   -1.4209531816E+00   -1.2975080851E+00
   -1.1663596765E+00   -1.0290738096E+00   -8.8729094424E-01   -7.4269999650E-01
   -5.9701111267E-01   -4.5192988180E-01   -3.0912548601E-01   -1.7020767198E-01