<UPF version="2.0.1">
  <PP_INFO>

 Mo_ONCV_PBE_FR-1.0.upf

 This pseudopotential file has been produced using the code
 ONCVPSP  (Optimized Norm-Conservinng Vanderbilt PSeudopotential)
 fully-relativistic version 2.1.1, 03/26/2014 by D. R. Hamann
 The code is available through a link at URL www.mat-simresearch.com.
 Documentation with the package provides a full description of the
 input data below.

 While it is not required under the terms of the GNU GPL, it is
 suggested that you cite D. R. Hamann, Phys. Rev. B 88, 085117 (2013)
 in any publication using these pseudopotentials.

 -----

 This pseudopotential was produced with the SG15 1.0 and/or 1.1
 parameter sets, the Schlipf-Gygi norm-conserving pseudopotential
 library. For details of the construction and testing of the
 pseudopotential please refer to:

 M. Schlipf, F. Gygi, Comp. Phys. Comm. 196, 36 (2015)
 http://dx.doi.org/10.1016/j.cpc.2015.05.011

 The above authors kindly ask that you include this reference in all
 publications associated to this pseudopotential.

 Please note this fully-relativistic version does not employ the
 above self-consistent procedure at the fully-relativistic level.

 -----

 This pseudopotential was produced by Peter Scherpelz for the purpose
 of performing GW calculations with spin-orbit-coupling. Please see
 the publication:

 P. Scherpelz, M. Govoni, I. Hamada, G. Galli; J. Chem. Theory Comput. (2016)
 http://dx.doi.org/10.1021/acs.jctc.6b00114

 If you use these pseudopotentials in your work, we also kindly ask
 that you cite the above publication.

 -----

 This work is licensed under the Creative Commons Attribution-ShareAlike 
 4.0 International License. To view a copy of this license, visit 
 http://creativecommons.org/licenses/by-sa/4.0/ or send a letter to 
 Creative Commons, PO Box 1866, Mountain View, CA 94042, USA.

 The SG15 library is Copyright 2015 The Regents of the University of
 California.  Further modifications of these files are Copyright 2016
 Peter Scherpelz.

    <PP_INPUTFILE>
# ATOM AND REFERENCE CONFIGURATION
# atsym  z    nc    nv    iexc   psfile
  Mo 42.00     6     4     4      upf
#
#   n    l    f        energy (Ha)
    1    0    2.00
    2    0    2.00
    2    1    6.00
    3    0    2.00
    3    1    6.00
    3    2   10.00
    4    0    2.00
    4    1    6.00
    5    0    2.00
    4    2    4.00
#
# PSEUDOPOTENTIAL AND OPTIMIZATION
# lmax
    2
#
#   l,   rc,     ep,   ncon, nbas, qcut
    0    2.32   -2.46    5    8    6.14
    1    2.52   -1.48    5    8    5.90
    2    2.58   -0.20    5    8    5.74
#
# LOCAL POTENTIAL
# lloc, lpopt,  rc(5),   dvloc0
    4    5      1.54       0.00
#
# VANDERBILT-KLEINMAN-BYLANDER PROJECTORs
# l, nproj, debl
    0    2    2.2854
    1    2    1.5281
    2    2    1.3639
#
# MODEL CORE CHARGE
# icmod, fcfact
    0    0.00
#
# LOG DERIVATIVE ANALYSIS
# epsh1, epsh2, depsh
   -5.00    3.00    0.02
#
# OUTPUT GRID
# rlmax, drl
    6.00    0.01
#
# TEST CONFIGURATIONS
# ncnf
    0
# nvcnf
#   n    l    f
    </PP_INPUTFILE>
  </PP_INFO>
  <!--                               -->
  <!-- END OF HUMAN READABLE SECTION -->
  <!--                               -->
    <PP_HEADER
       generated="Generated using ONCVPSP code by D. R. Hamann"
       author="anonymous"
       date="150703"
       comment=""
       element="Mo"
       pseudo_type="NC"
       relativistic="full"
       is_ultrasoft="F"
       is_paw="F"
       is_coulomb="F"
       has_so="T"
       has_wfc="F"
       has_gipaw="F"
       core_correction="F"
       functional="PBE"
       z_valence="   14.00"
       total_psenergy="  -6.81650456844E+01"
       rho_cutoff="   6.01000000000E+00"
       l_max="2"
       l_local="-1"
       mesh_size="   602"
       number_of_wfc="0"
       number_of_proj="10"/>
 <PP_MESH>
   <PP_R type="real"  size=" 602" columns="8">
    0.0000    0.0100    0.0200    0.0300    0.0400    0.0500    0.0600    0.0700
    0.0800    0.0900    0.1000    0.1100    0.1200    0.1300    0.1400    0.1500
    0.1600    0.1700    0.1800    0.1900    0.2000    0.2100    0.2200    0.2300
    0.2400    0.2500    0.2600    0.2700    0.2800    0.2900    0.3000    0.3100
    0.3200    0.3300    0.3400    0.3500    0.3600    0.3700    0.3800    0.3900
    0.4000    0.4100    0.4200    0.4300    0.4400    0.4500    0.4600    0.4700
    0.4800    0.4900    0.5000    0.5100    0.5200    0.5300    0.5400    0.5500
    0.5600    0.5700    0.5800    0.5900    0.6000    0.6100    0.6200    0.6300
    0.6400    0.6500    0.6600    0.6700    0.6800    0.6900    0.7000    0.7100
    0.7200    0.7300    0.7400    0.7500    0.7600    0.7700    0.7800    0.7900
    0.8000    0.8100    0.8200    0.8300    0.8400    0.8500    0.8600    0.8700
    0.8800    0.8900    0.9000    0.9100    0.9200    0.9300    0.9400    0.9500
    0.9600    0.9700    0.9800    0.9900    1.0000    1.0100    1.0200    1.0300
    1.0400    1.0500    1.0600    1.0700    1.0800    1.0900    1.1000    1.1100
    1.1200    1.1300    1.1400    1.1500    1.1600    1.1700    1.1800    1.1900
    1.2000    1.2100    1.2200    1.2300    1.2400    1.2500    1.2600    1.2700
    1.2800    1.2900    1.3000    1.3100    1.3200    1.3300    1.3400    1.3500
    1.3600    1.3700    1.3800    1.3900    1.4000    1.4100    1.4200    1.4300
    1.4400    1.4500    1.4600    1.4700    1.4800    1.4900    1.5000    1.5100
    1.5200    1.5300    1.5400    1.5500    1.5600    1.5700    1.5800    1.5900
    1.6000    1.6100    1.6200    1.6300    1.6400    1.6500    1.6600    1.6700
    1.6800    1.6900    1.7000    1.7100    1.7200    1.7300    1.7400    1.7500
    1.7600    1.7700    1.7800    1.7900    1.8000    1.8100    1.8200    1.8300
    1.8400    1.8500    1.8600    1.8700    1.8800    1.8900    1.9000    1.9100
    1.9200    1.9300    1.9400    1.9500    1.9600    1.9700    1.9800    1.9900
    2.0000    2.0100    2.0200    2.0300    2.0400    2.0500    2.0600    2.0700
    2.0800    2.0900    2.1000    2.1100    2.1200    2.1300    2.1400    2.1500
    2.1600    2.1700    2.1800    2.1900    2.2000    2.2100    2.2200    2.2300
    2.2400    2.2500    2.2600    2.2700    2.2800    2.2900    2.3000    2.3100
    2.3200    2.3300    2.3400    2.3500    2.3600    2.3700    2.3800    2.3900
    2.4000    2.4100    2.4200    2.4300    2.4400    2.4500    2.4600    2.4700
    2.4800    2.4900    2.5000    2.5100    2.5200    2.5300    2.5400    2.5500
    2.5600    2.5700    2.5800    2.5900    2.6000    2.6100    2.6200    2.6300
    2.6400    2.6500    2.6600    2.6700    2.6800    2.6900    2.7000    2.7100
    2.7200    2.7300    2.7400    2.7500    2.7600    2.7700    2.7800    2.7900
    2.8000    2.8100    2.8200    2.8300    2.8400    2.8500    2.8600    2.8700
    2.8800    2.8900    2.9000    2.9100    2.9200    2.9300    2.9400    2.9500
    2.9600    2.9700    2.9800    2.9900    3.0000    3.0100    3.0200    3.0300
    3.0400    3.0500    3.0600    3.0700    3.0800    3.0900    3.1000    3.1100
    3.1200    3.1300    3.1400    3.1500    3.1600    3.1700    3.1800    3.1900
    3.2000    3.2100    3.2200    3.2300    3.2400    3.2500    3.2600    3.2700
    3.2800    3.2900    3.3000    3.3100    3.3200    3.3300    3.3400    3.3500
    3.3600    3.3700    3.3800    3.3900    3.4000    3.4100    3.4200    3.4300
    3.4400    3.4500    3.4600    3.4700    3.4800    3.4900    3.5000    3.5100
    3.5200    3.5300    3.5400    3.5500    3.5600    3.5700    3.5800    3.5900
    3.6000    3.6100    3.6200    3.6300    3.6400    3.6500    3.6600    3.6700
    3.6800    3.6900    3.7000    3.7100    3.7200    3.7300    3.7400    3.7500
    3.7600    3.7700    3.7800    3.7900    3.8000    3.8100    3.8200    3.8300
    3.8400    3.8500    3.8600    3.8700    3.8800    3.8900    3.9000    3.9100
    3.9200    3.9300    3.9400    3.9500    3.9600    3.9700    3.9800    3.9900
    4.0000    4.0100    4.0200    4.0300    4.0400    4.0500    4.0600    4.0700
    4.0800    4.0900    4.1000    4.1100    4.1200    4.1300    4.1400    4.1500
    4.1600    4.1700    4.1800    4.1900    4.2000    4.2100    4.2200    4.2300
    4.2400    4.2500    4.2600    4.2700    4.2800    4.2900    4.3000    4.3100
    4.3200    4.3300    4.3400    4.3500    4.3600    4.3700    4.3800    4.3900
    4.4000    4.4100    4.4200    4.4300    4.4400    4.4500    4.4600    4.4700
    4.4800    4.4900    4.5000    4.5100    4.5200    4.5300    4.5400    4.5500
    4.5600    4.5700    4.5800    4.5900    4.6000    4.6100    4.6200    4.6300
    4.6400    4.6500    4.6600    4.6700    4.6800    4.6900    4.7000    4.7100
    4.7200    4.7300    4.7400    4.7500    4.7600    4.7700    4.7800    4.7900
    4.8000    4.8100    4.8200    4.8300    4.8400    4.8500    4.8600    4.8700
    4.8800    4.8900    4.9000    4.9100    4.9200    4.9300    4.9400    4.9500
    4.9600    4.9700    4.9800    4.9900    5.0000    5.0100    5.0200    5.0300
    5.0400    5.0500    5.0600    5.0700    5.0800    5.0900    5.1000    5.1100
    5.1200    5.1300    5.1400    5.1500    5.1600    5.1700    5.1800    5.1900
    5.2000    5.2100    5.2200    5.2300    5.2400    5.2500    5.2600    5.2700
    5.2800    5.2900    5.3000    5.3100    5.3200    5.3300    5.3400    5.3500
    5.3600    5.3700    5.3800    5.3900    5.4000    5.4100    5.4200    5.4300
    5.4400    5.4500    5.4600    5.4700    5.4800    5.4900    5.5000    5.5100
    5.5200    5.5300    5.5400    5.5500    5.5600    5.5700    5.5800    5.5900
    5.6000    5.6100    5.6200    5.6300    5.6400    5.6500    5.6600    5.6700
    5.6800    5.6900    5.7000    5.7100    5.7200    5.7300    5.7400    5.7500
    5.7600    5.7700    5.7800    5.7900    5.8000    5.8100    5.8200    5.8300
    5.8400    5.8500    5.8600    5.8700    5.8800    5.8900    5.9000    5.9100
    5.9200    5.9300    5.9400    5.9500    5.9600    5.9700    5.9800    5.9900
    6.0000    6.0100
   </PP_R>
   <PP_RAB type="real"  size=" 602" columns="8">
    0.0100    0.0100    0.0100    0.0100    0.0100    0.0100    0.0100    0.0100
    0.0100    0.0100    0.0100    0.0100    0.0100    0.0100    0.0100    0.0100
    0.0100    0.0100    0.0100    0.0100    0.0100    0.0100    0.0100    0.0100
    0.0100    0.0100    0.0100    0.0100    0.0100    0.0100    0.0100    0.0100
    0.0100    0.0100    0.0100    0.0100    0.0100    0.0100    0.0100    0.0100
    0.0100    0.0100    0.0100    0.0100    0.0100    0.0100    0.0100    0.0100
    0.0100    0.0100    0.0100    0.0100    0.0100    0.0100    0.0100    0.0100
    0.0100    0.0100    0.0100    0.0100    0.0100    0.0100    0.0100    0.0100
    0.0100    0.0100    0.0100    0.0100    0.0100    0.0100    0.0100    0.0100
    0.0100    0.0100    0.0100    0.0100    0.0100    0.0100    0.0100    0.0100
    0.0100    0.0100    0.0100    0.0100    0.0100    0.0100    0.0100    0.0100
    0.0100    0.0100    0.0100    0.0100    0.0100    0.0100    0.0100    0.0100
    0.0100    0.0100    0.0100    0.0100    0.0100    0.0100    0.0100    0.0100
    0.0100    0.0100    0.0100    0.0100    0.0100    0.0100    0.0100    0.0100
    0.0100    0.0100    0.0100    0.0100    0.0100    0.0100    0.0100    0.0100
    0.0100    0.0100    0.0100    0.0100    0.0100    0.0100    0.0100    0.0100
    0.0100    0.0100    0.0100    0.0100    0.0100    0.0100    0.0100    0.0100
    0.0100    0.0100    0.0100    0.0100    0.0100    0.0100    0.0100    0.0100
    0.0100    0.0100    0.0100    0.0100    0.0100    0.0100    0.0100    0.0100
    0.0100    0.0100    0.0100    0.0100    0.0100    0.0100    0.0100    0.0100
    0.0100    0.0100    0.0100    0.0100    0.0100    0.0100    0.0100    0.0100
    0.0100    0.0100    0.0100    0.0100    0.0100    0.0100    0.0100    0.0100
    0.0100    0.0100    0.0100    0.0100    0.0100    0.0100    0.0100    0.0100
    0.0100    0.0100    0.0100    0.0100    0.0100    0.0100    0.0100    0.0100
    0.0100    0.0100    0.0100    0.0100    0.0100    0.0100    0.0100    0.0100
    0.0100    0.0100    0.0100    0.0100    0.0100    0.0100    0.0100    0.0100
    0.0100    0.0100    0.0100    0.0100    0.0100    0.0100    0.0100    0.0100
    0.0100    0.0100    0.0100    0.0100    0.0100    0.0100    0.0100    0.0100
    0.0100    0.0100    0.0100    0.0100    0.0100    0.0100    0.0100    0.0100
    0.0100    0.0100    0.0100    0.0100    0.0100    0.0100    0.0100    0.0100
    0.0100    0.0100    0.0100    0.0100    0.0100    0.0100    0.0100    0.0100
    0.0100    0.0100    0.0100    0.0100    0.0100    0.0100    0.0100    0.0100
    0.0100    0.0100    0.0100    0.0100    0.0100    0.0100    0.0100    0.0100
    0.0100    0.0100    0.0100    0.0100    0.0100    0.0100    0.0100    0.0100
    0.0100    0.0100    0.0100    0.0100    0.0100    0.0100    0.0100    0.0100
    0.0100    0.0100    0.0100    0.0100    0.0100    0.0100    0.0100    0.0100
    0.0100    0.0100    0.0100    0.0100    0.0100    0.0100    0.0100    0.0100
    0.0100    0.0100    0.0100    0.0100    0.0100    0.0100    0.0100    0.0100
    0.0100    0.0100    0.0100    0.0100    0.0100    0.0100    0.0100    0.0100
    0.0100    0.0100    0.0100    0.0100    0.0100    0.0100    0.0100    0.0100
    0.0100    0.0100    0.0100    0.0100    0.0100    0.0100    0.0100    0.0100
    0.0100    0.0100    0.0100    0.0100    0.0100    0.0100    0.0100    0.0100
    0.0100    0.0100    0.0100    0.0100    0.0100    0.0100    0.0100    0.0100
    0.0100    0.0100    0.0100    0.0100    0.0100    0.0100    0.0100    0.0100
    0.0100    0.0100    0.0100    0.0100    0.0100    0.0100    0.0100    0.0100
    0.0100    0.0100    0.0100    0.0100    0.0100    0.0100    0.0100    0.0100
    0.0100    0.0100    0.0100    0.0100    0.0100    0.0100    0.0100    0.0100
    0.0100    0.0100    0.0100    0.0100    0.0100    0.0100    0.0100    0.0100
    0.0100    0.0100    0.0100    0.0100    0.0100    0.0100    0.0100    0.0100
    0.0100    0.0100    0.0100    0.0100    0.0100    0.0100    0.0100    0.0100
    0.0100    0.0100    0.0100    0.0100    0.0100    0.0100    0.0100    0.0100
    0.0100    0.0100    0.0100    0.0100    0.0100    0.0100    0.0100    0.0100
    0.0100    0.0100    0.0100    0.0100    0.0100    0.0100    0.0100    0.0100
    0.0100    0.0100    0.0100    0.0100    0.0100    0.0100    0.0100    0.0100
    0.0100    0.0100    0.0100    0.0100    0.0100    0.0100    0.0100    0.0100
    0.0100    0.0100    0.0100    0.0100    0.0100    0.0100    0.0100    0.0100
    0.0100    0.0100    0.0100    0.0100    0.0100    0.0100    0.0100    0.0100
    0.0100    0.0100    0.0100    0.0100    0.0100    0.0100    0.0100    0.0100
    0.0100    0.0100    0.0100    0.0100    0.0100    0.0100    0.0100    0.0100
    0.0100    0.0100    0.0100    0.0100    0.0100    0.0100    0.0100    0.0100
    0.0100    0.0100    0.0100    0.0100    0.0100    0.0100    0.0100    0.0100
    0.0100    0.0100    0.0100    0.0100    0.0100    0.0100    0.0100    0.0100
    0.0100    0.0100    0.0100    0.0100    0.0100    0.0100    0.0100    0.0100
    0.0100    0.0100    0.0100    0.0100    0.0100    0.0100    0.0100    0.0100
    0.0100    0.0100    0.0100    0.0100    0.0100    0.0100    0.0100    0.0100
    0.0100    0.0100    0.0100    0.0100    0.0100    0.0100    0.0100    0.0100
    0.0100    0.0100    0.0100    0.0100    0.0100    0.0100    0.0100    0.0100
    0.0100    0.0100    0.0100    0.0100    0.0100    0.0100    0.0100    0.0100
    0.0100    0.0100    0.0100    0.0100    0.0100    0.0100    0.0100    0.0100
    0.0100    0.0100    0.0100    0.0100    0.0100    0.0100    0.0100    0.0100
    0.0100    0.0100    0.0100    0.0100    0.0100    0.0100    0.0100    0.0100
    0.0100    0.0100    0.0100    0.0100    0.0100    0.0100    0.0100    0.0100
    0.0100    0.0100    0.0100    0.0100    0.0100    0.0100    0.0100    0.0100
    0.0100    0.0100    0.0100    0.0100    0.0100    0.0100    0.0100    0.0100
    0.0100    0.0100    0.0100    0.0100    0.0100    0.0100    0.0100    0.0100
    0.0100    0.0100
   </PP_RAB>
 </PP_MESH>
  <PP_LOCAL type="real"  size=" 602" columns="4">
   -3.9908724115E+01   -3.9908771714E+01   -3.9909467462E+01   -3.9910103358E+01
   -3.9909971404E+01   -3.9908217353E+01   -3.9903941589E+01   -3.9896290256E+01
   -3.9884524288E+01   -3.9868061102E+01   -3.9846490027E+01   -3.9819566693E+01
   -3.9787193320E+01   -3.9749391621E+01   -3.9706273729E+01   -3.9658014823E+01
   -3.9604829553E+01   -3.9546953095E+01   -3.9484626836E+01   -3.9418088209E+01
   -3.9347563958E+01   -3.9273266088E+01   -3.9195389813E+01   -3.9114112900E+01
   -3.9029595956E+01   -3.8941983292E+01   -3.8851404103E+01   -3.8757973799E+01
   -3.8661795355E+01   -3.8562960605E+01   -3.8461551453E+01   -3.8357640965E+01
   -3.8251294352E+01   -3.8142569847E+01   -3.8031519443E+01   -3.7918189607E+01
   -3.7802621832E+01   -3.7684853206E+01   -3.7564916849E+01   -3.7442842352E+01
   -3.7318656161E+01   -3.7192381929E+01   -3.7064040844E+01   -3.6933651938E+01
   -3.6801232375E+01   -3.6666797736E+01   -3.6530362287E+01   -3.6391939238E+01
   -3.6251541004E+01   -3.6109179452E+01   -3.5964866145E+01   -3.5818612591E+01
   -3.5670430470E+01   -3.5520331877E+01   -3.5368329540E+01   -3.5214437034E+01
   -3.5058669014E+01   -3.4901041370E+01   -3.4741571482E+01   -3.4580278313E+01
   -3.4417182650E+01   -3.4252307193E+01   -3.4085676678E+01   -3.3917318054E+01
   -3.3747260469E+01   -3.3575535394E+01   -3.3402176701E+01   -3.3227220615E+01
   -3.3050705715E+01   -3.2872673019E+01   -3.2693165861E+01   -3.2512229848E+01
   -3.2329912799E+01   -3.2146264635E+01   -3.1961337366E+01   -3.1775184891E+01
   -3.1587862911E+01   -3.1399428796E+01   -3.1209941457E+01   -3.1019461209E+01
   -3.0828049631E+01   -3.0635769427E+01   -3.0442684285E+01   -3.0248858742E+01
   -3.0054358050E+01   -2.9859248045E+01   -2.9663595023E+01   -2.9467465620E+01
   -2.9270926698E+01   -2.9074045236E+01   -2.8876888230E+01   -2.8679522595E+01
   -2.8482015079E+01   -2.8284432174E+01   -2.8086840041E+01   -2.7889304437E+01
   -2.7691890645E+01   -2.7494663417E+01   -2.7297686930E+01   -2.7101024665E+01
   -2.6904739416E+01   -2.6708893224E+01   -2.6513547328E+01   -2.6318762126E+01
   -2.6124597194E+01   -2.5931111060E+01   -2.5738361321E+01   -2.5546404570E+01
   -2.5355296362E+01   -2.5165091284E+01   -2.4975842567E+01   -2.4787602381E+01
   -2.4600421706E+01   -2.4414350457E+01   -2.4229436998E+01   -2.4045728453E+01
   -2.3863270657E+01   -2.3682108294E+01   -2.3502284143E+01   -2.3323839741E+01
   -2.3146815362E+01   -2.2971249499E+01   -2.2797178933E+01   -2.2624639150E+01
   -2.2453664025E+01   -2.2284285236E+01   -2.2116533191E+01   -2.1950436709E+01
   -2.1786022058E+01   -2.1623314311E+01   -2.1462336743E+01   -2.1303109929E+01
   -2.1145653408E+01   -2.0989984349E+01   -2.0836117414E+01   -2.0684066458E+01
   -2.0533841905E+01   -2.0385452564E+01   -2.0238905916E+01   -2.0094205527E+01
   -1.9951354524E+01   -1.9810352684E+01   -1.9671197510E+01   -1.9533885583E+01
   -1.9398408842E+01   -1.9264759377E+01   -1.9132924943E+01   -1.9002891882E+01
   -1.8874644447E+01   -1.8748162889E+01   -1.8623427868E+01   -1.8500413927E+01
   -1.8379096813E+01   -1.8259446634E+01   -1.8141433362E+01   -1.8025022644E+01
   -1.7910180282E+01   -1.7796870541E+01   -1.7685059560E+01   -1.7574713376E+01
   -1.7465800028E+01   -1.7358287017E+01   -1.7252144266E+01   -1.7147340717E+01
   -1.7043848092E+01   -1.6941636864E+01   -1.6840680406E+01   -1.6740950804E+01
   -1.6642422984E+01   -1.6545070603E+01   -1.6448870139E+01   -1.6353796729E+01
   -1.6259828393E+01   -1.6166941648E+01   -1.6075115968E+01   -1.5984329323E+01
   -1.5894562394E+01   -1.5805794640E+01   -1.5718007784E+01   -1.5631182750E+01
   -1.5545302164E+01   -1.5460348368E+01   -1.5376304762E+01   -1.5293155042E+01
   -1.5210883270E+01   -1.5129474419E+01   -1.5048913125E+01   -1.4969185541E+01
   -1.4890276821E+01   -1.4812174051E+01   -1.4734863295E+01   -1.4658332022E+01
   -1.4582567384E+01   -1.4507557093E+01   -1.4433289376E+01   -1.4359752144E+01
   -1.4286934591E+01   -1.4214825009E+01   -1.4143413166E+01   -1.4072688253E+01
   -1.4002640104E+01   -1.3933259002E+01   -1.3864534785E+01   -1.3796458673E+01
   -1.3729020995E+01   -1.3662213255E+01   -1.3596026822E+01   -1.3530453075E+01
   -1.3465484439E+01   -1.3401112485E+01   -1.3337330089E+01   -1.3274129776E+01
   -1.3211504186E+01   -1.3149446837E+01   -1.3087950513E+01   -1.3027009048E+01
   -1.2966616072E+01   -1.2906765139E+01   -1.2847450598E+01   -1.2788666275E+01
   -1.2730406526E+01   -1.2672665815E+01   -1.2615438310E+01   -1.2558718803E+01
   -1.2502501814E+01   -1.2446781946E+01   -1.2391554010E+01   -1.2336812669E+01
   -1.2282552722E+01   -1.2228768979E+01   -1.2175456211E+01   -1.2122609235E+01
   -1.2070222866E+01   -1.2018291921E+01   -1.1966811110E+01   -1.1915775203E+01
   -1.1865178941E+01   -1.1815017019E+01   -1.1765284147E+01   -1.1715975052E+01
   -1.1667084466E+01   -1.1618607115E+01   -1.1570537731E+01   -1.1522871047E+01
   -1.1475601698E+01   -1.1428724579E+01   -1.1382234509E+01   -1.1336126131E+01
   -1.1290394568E+01   -1.1245034754E+01   -1.1200041392E+01   -1.1155409929E+01
   -1.1111135507E+01   -1.1067212956E+01   -1.1023638148E+01   -1.0980406541E+01
   -1.0937513159E+01   -1.0894954349E+01   -1.0852725965E+01   -1.0810823323E+01
   -1.0769243177E+01   -1.0727981777E+01   -1.0687035017E+01   -1.0646399659E+01
   -1.0606072250E+01   -1.0566049144E+01   -1.0526327027E+01   -1.0486902569E+01
   -1.0447772228E+01   -1.0408932770E+01   -1.0370381105E+01   -1.0332113934E+01
   -1.0294128042E+01   -1.0256420527E+01   -1.0218988299E+01   -1.0181828142E+01
   -1.0144937347E+01   -1.0108312998E+01   -1.0071951984E+01   -1.0035851658E+01
   -1.0000009278E+01   -9.9644219442E+00   -9.9290869478E+00   -9.8940017536E+00
   -9.8591636764E+00   -9.8245699296E+00   -9.7902181741E+00   -9.7561058832E+00
   -9.7222303668E+00   -9.6885892879E+00   -9.6551802965E+00   -9.6220009179E+00
   -9.5890486884E+00   -9.5563214630E+00   -9.5238169448E+00   -9.4915326689E+00
   -9.4594665489E+00   -9.4276164372E+00   -9.3959800855E+00   -9.3645552407E+00
   -9.3333399636E+00   -9.3023321664E+00   -9.2715296194E+00   -9.2409303818E+00
   -9.2105325250E+00   -9.1803340405E+00   -9.1503327881E+00   -9.1205270443E+00
   -9.0909149113E+00   -9.0614944068E+00   -9.0322636430E+00   -9.0032209216E+00
   -8.9743644332E+00   -8.9456922322E+00   -8.9172026522E+00   -8.8888940213E+00
   -8.8607646146E+00   -8.8328125326E+00   -8.8050362979E+00   -8.7774342698E+00
   -8.7500047692E+00   -8.7227460550E+00   -8.6956567030E+00   -8.6687351453E+00
   -8.6419797511E+00   -8.6153889246E+00   -8.5889612855E+00   -8.5626953389E+00
   -8.5365895085E+00   -8.5106423187E+00   -8.4848524373E+00   -8.4592184390E+00
   -8.4337388074E+00   -8.4084121632E+00   -8.3832372267E+00   -8.3582126391E+00
   -8.3333369491E+00   -8.3086088504E+00   -8.2840271213E+00   -8.2595904662E+00
   -8.2352975032E+00   -8.2111469778E+00   -8.1871377310E+00   -8.1632685276E+00
   -8.1395380594E+00   -8.1159451037E+00   -8.0924885685E+00   -8.0691672762E+00
   -8.0459799967E+00   -8.0229255204E+00   -8.0000028262E+00   -7.9772107913E+00
   -7.9545482679E+00   -7.9320140427E+00   -7.9096071682E+00   -7.8873265741E+00
   -7.8651711897E+00   -7.8431398102E+00   -7.8212315366E+00   -7.7994453573E+00
   -7.7777802516E+00   -7.7562351033E+00   -7.7348089701E+00   -7.7135009272E+00
   -7.6923100014E+00   -7.6712351709E+00   -7.6502754348E+00   -7.6294299568E+00
   -7.6086978093E+00   -7.5880780645E+00   -7.5675696657E+00   -7.5471718508E+00
   -7.5268837397E+00   -7.5067044479E+00   -7.4866330184E+00   -7.4666685988E+00
   -7.4468104077E+00   -7.4270576019E+00   -7.4074093303E+00   -7.3878646395E+00
   -7.3684228449E+00   -7.3490831426E+00   -7.3298447286E+00   -7.3107067317E+00
   -7.2916683728E+00   -7.2727289466E+00   -7.2538876865E+00   -7.2351438260E+00
   -7.2164964847E+00   -7.1979450341E+00   -7.1794887519E+00   -7.1611269073E+00
   -7.1428587338E+00   -7.1246834595E+00   -7.1066004734E+00   -7.0886090790E+00
   -7.0707085794E+00   -7.0528982077E+00   -7.0351773064E+00   -7.0175452605E+00
   -7.0000014057E+00   -6.9825450778E+00   -6.9651755170E+00   -6.9478921597E+00
   -6.9306943924E+00   -6.9135815817E+00   -6.8965530925E+00   -6.8796081847E+00
   -6.8627463629E+00   -6.8459670234E+00   -6.8292695623E+00   -6.8126533594E+00
   -6.7961177375E+00   -6.7796622143E+00   -6.7632862138E+00   -6.7469891605E+00
   -6.7307704550E+00   -6.7146294665E+00   -6.6985657301E+00   -6.6825786968E+00
   -6.6666678179E+00   -6.6508325202E+00   -6.6350722033E+00   -6.6193864250E+00
   -6.6037746618E+00   -6.5882363905E+00   -6.5727710694E+00   -6.5573781135E+00
   -6.5420571077E+00   -6.5268075532E+00   -6.5116289510E+00   -6.4965207955E+00
   -6.4814825032E+00   -6.4665136909E+00   -6.4516138827E+00   -6.4367826031E+00
   -6.4220193763E+00   -6.4073236397E+00   -6.3926950135E+00   -6.3781330546E+00
   -6.3636373097E+00   -6.3492073250E+00   -6.3348425836E+00   -6.3205426762E+00
   -6.3063072032E+00   -6.2921357324E+00   -6.2780278313E+00   -6.2639830329E+00
   -6.2500008869E+00   -6.2360810405E+00   -6.2222230816E+00   -6.2084265979E+00
   -6.1946911766E+00   -6.1810163166E+00   -6.1674017141E+00   -6.1538469759E+00
   -6.1403517092E+00   -6.1269155207E+00   -6.1135379653E+00   -6.1002186747E+00
   -6.0869573120E+00   -6.0737535024E+00   -6.0606068712E+00   -6.0475170355E+00
   -6.0344835519E+00   -6.0215061413E+00   -6.0085844464E+00   -5.9957181100E+00
   -5.9829067749E+00   -5.9701500375E+00   -5.9574475557E+00   -5.9447990286E+00
   -5.9322041157E+00   -5.9196624762E+00   -5.9071737696E+00   -5.8947375797E+00
   -5.8823536486E+00   -5.8700216586E+00   -5.8577412850E+00   -5.8455122031E+00
   -5.8333340693E+00   -5.8212065183E+00   -5.8091293029E+00   -5.7971021137E+00
   -5.7851246409E+00   -5.7731965750E+00   -5.7613175686E+00   -5.7494873140E+00
   -5.7377055583E+00   -5.7259720064E+00   -5.7142863631E+00   -5.7026483332E+00
   -5.6910575713E+00   -5.6795138130E+00   -5.6680168050E+00   -5.6565662656E+00
   -5.6451619135E+00   -5.6338034673E+00   -5.6224905888E+00   -5.6112230436E+00
   -5.6000005825E+00   -5.5888229373E+00   -5.5776898397E+00   -5.5666010213E+00
   -5.5555561562E+00   -5.5445550267E+00   -5.5335973935E+00   -5.5226830008E+00
   -5.5118115927E+00   -5.5009829135E+00   -5.4901966537E+00   -5.4794526008E+00
   -5.4687505298E+00   -5.4580901967E+00   -5.4474713578E+00   -5.4368937692E+00
   -5.4263571421E+00   -5.4158612580E+00   -5.4054059107E+00   -5.3949908677E+00
   -5.3846158964E+00   -5.3742807644E+00   -5.3639852079E+00   -5.3537289919E+00
   -5.3435119329E+00   -5.3333338092E+00   -5.3231943992E+00   -5.3130934812E+00
   -5.3030308206E+00   -5.2930061558E+00   -5.2830193299E+00   -5.2730701316E+00
   -5.2631583494E+00   -5.2532837720E+00   -5.2434461880E+00   -5.2336453301E+00
   -5.2238810414E+00   -5.2141531300E+00   -5.2044613945E+00   -5.1948056332E+00
   -5.1851856448E+00   -5.1756011989E+00   -5.1660520908E+00   -5.1565381643E+00
   -5.1470592273E+00   -5.1376150876E+00   -5.1282055531E+00   -5.1188304316E+00
   -5.1094894715E+00   -5.1001825459E+00   -5.0909094742E+00   -5.0816700733E+00
   -5.0724641601E+00   -5.0632915514E+00   -5.0541520396E+00   -5.0450454318E+00
   -5.0359715906E+00   -5.0269303414E+00   -5.0179215095E+00   -5.0089449203E+00
   -5.0000003991E+00   -4.9910877265E+00   -4.9822067634E+00   -4.9733573584E+00
   -4.9645393451E+00   -4.9557525569E+00   -4.9469968274E+00   -4.9382719885E+00
   -4.9295778189E+00   -4.9209142162E+00   -4.9122810217E+00   -4.9036780766E+00
   -4.8951052222E+00   -4.8865622997E+00   -4.8780491375E+00   -4.8695655469E+00
   -4.8611114209E+00   -4.8526866081E+00   -4.8442909571E+00   -4.8359243166E+00
   -4.8275865352E+00   -4.8192774426E+00   -4.8109968717E+00   -4.8027447152E+00
   -4.7945208287E+00   -4.7863250679E+00   -4.7781572886E+00   -4.7700173465E+00
   -4.7619050768E+00   -4.7538203237E+00   -4.7457629839E+00   -4.7377329198E+00
   -4.7297299938E+00   -4.7217540684E+00   -4.7138050060E+00   -4.7058826520E+00
   -4.6979868513E+00   -4.6901175093E+00   -4.6822744946E+00   -4.6744576762E+00
   -4.6666669228E+00   -4.6589021033E+00
  </PP_LOCAL>
 <PP_NONLOCAL>
   <PP_BETA.1
       type="real"
       size=" 602"
       columns="4"
       index="1"
       angular_momentum="0"
       cutoff_radius_index=" 262"
       cutoff_radius="    2.6100000000E+00" >
    0.0000000000E+00    8.0447311454E-03    1.6068338394E-02    2.4049635846E-02
    3.1967314312E-02    3.9799881424E-02    4.7525603867E-02    5.5122452390E-02
    6.2568050285E-02    6.9839625959E-02    7.6913970243E-02    8.3767399017E-02
    9.0375721722E-02    9.6714216291E-02    1.0275761098E-01    1.0848007356E-01
    1.1385520825E-01    1.1885606083E-01    1.2345513206E-01    1.2762439993E-01
    1.3133535068E-01    1.3455901889E-01    1.3726603672E-01    1.3942669226E-01
    1.4101099701E-01    1.4198876233E-01    1.4232968498E-01    1.4200344109E-01
    1.4097978850E-01    1.3922867740E-01    1.3672036849E-01    1.3342555841E-01
    1.2931551190E-01    1.2436219870E-01    1.1853844062E-01    1.1181805543E-01
    1.0417601488E-01    9.5588595201E-02    8.6033540417E-02    7.5490221219E-02
    6.3939795299E-02    5.1365369309E-02    3.7752159203E-02    2.3087648625E-02
    7.3617444261E-03   -9.4330716350E-03   -2.7301596016E-02   -4.6245762388E-02
   -6.6264507662E-02   -8.7353652654E-02   -1.0950576461E-01   -1.3271006607E-01
   -1.5695234371E-01   -1.8221483650E-01   -2.0847618271E-01   -2.3571136158E-01
   -2.6389161851E-01   -2.9298447736E-01   -3.2295366921E-01   -3.5375918339E-01
   -3.8535723833E-01   -4.1770033743E-01   -4.5073731585E-01   -4.8441338374E-01
   -5.1867023629E-01   -5.5344613619E-01   -5.8867603145E-01   -6.2429169699E-01