<UPF version="2.0.1">
  <PP_INFO>

 Ni_ONCV_PBE_FR-1.0.upf

 This pseudopotential file has been produced using the code
 ONCVPSP  (Optimized Norm-Conservinng Vanderbilt PSeudopotential)
 fully-relativistic version 2.1.1, 03/26/2014 by D. R. Hamann
 The code is available through a link at URL www.mat-simresearch.com.
 Documentation with the package provides a full description of the
 input data below.

 While it is not required under the terms of the GNU GPL, it is
 suggested that you cite D. R. Hamann, Phys. Rev. B 88, 085117 (2013)
 in any publication using these pseudopotentials.

 -----

 This pseudopotential was produced with the SG15 1.0 and/or 1.1
 parameter sets, the Schlipf-Gygi norm-conserving pseudopotential
 library. For details of the construction and testing of the
 pseudopotential please refer to:

 M. Schlipf, F. Gygi, Comp. Phys. Comm. 196, 36 (2015)
 http://dx.doi.org/10.1016/j.cpc.2015.05.011

 The above authors kindly ask that you include this reference in all
 publications associated to this pseudopotential.

 Please note this fully-relativistic version does not employ the
 above self-consistent procedure at the fully-relativistic level.

 -----

 This pseudopotential was produced by Peter Scherpelz for the purpose
 of performing GW calculations with spin-orbit-coupling. Please see
 the publication:

 P. Scherpelz, M. Govoni, I. Hamada, G. Galli; J. Chem. Theory Comput. (2016)
 http://dx.doi.org/10.1021/acs.jctc.6b00114

 If you use these pseudopotentials in your work, we also kindly ask
 that you cite the above publication.

 -----

 This work is licensed under the Creative Commons Attribution-ShareAlike 
 4.0 International License. To view a copy of this license, visit 
 http://creativecommons.org/licenses/by-sa/4.0/ or send a letter to 
 Creative Commons, PO Box 1866, Mountain View, CA 94042, USA.

 The SG15 library is Copyright 2015 The Regents of the University of
 California.  Further modifications of these files are Copyright 2016
 Peter Scherpelz.

    <PP_INPUTFILE>
# ATOM AND REFERENCE CONFIGURATION
# atsym  z    nc    nv    iexc   psfile
  Ni 28.00     3     4     4      upf
#
#   n    l    f        energy (Ha)
    1    0    2.00
    2    0    2.00
    2    1    6.00
    3    0    2.00
    3    1    6.00
    4    0    2.00
    3    2    8.00
#
# PSEUDOPOTENTIAL AND OPTIMIZATION
# lmax
    2
#
#   l,   rc,     ep,   ncon, nbas, qcut
    0    2.18   -4.08    5    8    6.78
    1    2.18   -2.60    5    8    7.58
    2    2.26   -0.32    5    8    8.25
#
# LOCAL POTENTIAL
# lloc, lpopt,  rc(5),   dvloc0
    4    5      1.87       0.00
#
# VANDERBILT-KLEINMAN-BYLANDER PROJECTORs
# l, nproj, debl
    0    2    3.8729
    1    2    3.0286
    2    2    1.2722
#
# MODEL CORE CHARGE
# icmod, fcfact
    0    0.00
#
# LOG DERIVATIVE ANALYSIS
# epsh1, epsh2, depsh
   -5.00    3.00    0.02
#
# OUTPUT GRID
# rlmax, drl
    6.00    0.01
#
# TEST CONFIGURATIONS
# ncnf
    0
# nvcnf
#   n    l    f
    </PP_INPUTFILE>
  </PP_INFO>
  <!--                               -->
  <!-- END OF HUMAN READABLE SECTION -->
  <!--                               -->
    <PP_HEADER
       generated="Generated using ONCVPSP code by D. R. Hamann"
       author="anonymous"
       date="150703"
       comment=""
       element="Ni"
       pseudo_type="NC"
       relativistic="full"
       is_ultrasoft="F"
       is_paw="F"
       is_coulomb="F"
       has_so="T"
       has_wfc="F"
       has_gipaw="F"
       core_correction="F"
       functional="PBE"
       z_valence="   18.00"
       total_psenergy="  -1.53879291547E+02"
       rho_cutoff="   6.01000000000E+00"
       l_max="2"
       l_local="-1"
       mesh_size="   602"
       number_of_wfc="0"
       number_of_proj="10"/>
 <PP_MESH>
   <PP_R type="real"  size=" 602" columns="8">
    0.0000    0.0100    0.0200    0.0300    0.0400    0.0500    0.0600    0.0700
    0.0800    0.0900    0.1000    0.1100    0.1200    0.1300    0.1400    0.1500
    0.1600    0.1700    0.1800    0.1900    0.2000    0.2100    0.2200    0.2300
    0.2400    0.2500    0.2600    0.2700    0.2800    0.2900    0.3000    0.3100
    0.3200    0.3300    0.3400    0.3500    0.3600    0.3700    0.3800    0.3900
    0.4000    0.4100    0.4200    0.4300    0.4400    0.4500    0.4600    0.4700
    0.4800    0.4900    0.5000    0.5100    0.5200    0.5300    0.5400    0.5500
    0.5600    0.5700    0.5800    0.5900    0.6000    0.6100    0.6200    0.6300
    0.6400    0.6500    0.6600    0.6700    0.6800    0.6900    0.7000    0.7100
    0.7200    0.7300    0.7400    0.7500    0.7600    0.7700    0.7800    0.7900
    0.8000    0.8100    0.8200    0.8300    0.8400    0.8500    0.8600    0.8700
    0.8800    0.8900    0.9000    0.9100    0.9200    0.9300    0.9400    0.9500
    0.9600    0.9700    0.9800    0.9900    1.0000    1.0100    1.0200    1.0300
    1.0400    1.0500    1.0600    1.0700    1.0800    1.0900    1.1000    1.1100
    1.1200    1.1300    1.1400    1.1500    1.1600    1.1700    1.1800    1.1900
    1.2000    1.2100    1.2200    1.2300    1.2400    1.2500    1.2600    1.2700
    1.2800    1.2900    1.3000    1.3100    1.3200    1.3300    1.3400    1.3500
    1.3600    1.3700    1.3800    1.3900    1.4000    1.4100    1.4200    1.4300
    1.4400    1.4500    1.4600    1.4700    1.4800    1.4900    1.5000    1.5100
    1.5200    1.5300    1.5400    1.5500    1.5600    1.5700    1.5800    1.5900
    1.6000    1.6100    1.6200    1.6300    1.6400    1.6500    1.6600    1.6700
    1.6800    1.6900    1.7000    1.7100    1.7200    1.7300    1.7400    1.7500
    1.7600    1.7700    1.7800    1.7900    1.8000    1.8100    1.8200    1.8300
    1.8400    1.8500    1.8600    1.8700    1.8800    1.8900    1.9000    1.9100
    1.9200    1.9300    1.9400    1.9500    1.9600    1.9700    1.9800    1.9900
    2.0000    2.0100    2.0200    2.0300    2.0400    2.0500    2.0600    2.0700
    2.0800    2.0900    2.1000    2.1100    2.1200    2.1300    2.1400    2.1500
    2.1600    2.1700    2.1800    2.1900    2.2000    2.2100    2.2200    2.2300
    2.2400    2.2500    2.2600    2.2700    2.2800    2.2900    2.3000    2.3100
    2.3200    2.3300    2.3400    2.3500    2.3600    2.3700    2.3800    2.3900
    2.4000    2.4100    2.4200    2.4300    2.4400    2.4500    2.4600    2.4700
    2.4800    2.4900    2.5000    2.5100    2.5200    2.5300    2.5400    2.5500
    2.5600    2.5700    2.5800    2.5900    2.6000    2.6100    2.6200    2.6300
    2.6400    2.6500    2.6600    2.6700    2.6800    2.6900    2.7000    2.7100
    2.7200    2.7300    2.7400    2.7500    2.7600    2.7700    2.7800    2.7900
    2.8000    2.8100    2.8200    2.8300    2.8400    2.8500    2.8600    2.8700
    2.8800    2.8900    2.9000    2.9100    2.9200    2.9300    2.9400    2.9500
    2.9600    2.9700    2.9800    2.9900    3.0000    3.0100    3.0200    3.0300
    3.0400    3.0500    3.0600    3.0700    3.0800    3.0900    3.1000    3.1100
    3.1200    3.1300    3.1400    3.1500    3.1600    3.1700    3.1800    3.1900
    3.2000    3.2100    3.2200    3.2300    3.2400    3.2500    3.2600    3.2700
    3.2800    3.2900    3.3000    3.3100    3.3200    3.3300    3.3400    3.3500
    3.3600    3.3700    3.3800    3.3900    3.4000    3.4100    3.4200    3.4300
    3.4400    3.4500    3.4600    3.4700    3.4800    3.4900    3.5000    3.5100
    3.5200    3.5300    3.5400    3.5500    3.5600    3.5700    3.5800    3.5900
    3.6000    3.6100    3.6200    3.6300    3.6400    3.6500    3.6600    3.6700
    3.6800    3.6900    3.7000    3.7100    3.7200    3.7300    3.7400    3.7500
    3.7600    3.7700    3.7800    3.7900    3.8000    3.8100    3.8200    3.8300
    3.8400    3.8500    3.8600    3.8700    3.8800    3.8900    3.9000    3.9100
    3.9200    3.9300    3.9400    3.9500    3.9600    3.9700    3.9800    3.9900
    4.0000    4.0100    4.0200    4.0300    4.0400    4.0500    4.0600    4.0700
    4.0800    4.0900    4.1000    4.1100    4.1200    4.1300    4.1400    4.1500
    4.1600    4.1700    4.1800    4.1900    4.2000    4.2100    4.2200    4.2300
    4.2400    4.2500    4.2600    4.2700    4.2800    4.2900    4.3000    4.3100
    4.3200    4.3300    4.3400    4.3500    4.3600    4.3700    4.3800    4.3900
    4.4000    4.4100    4.4200    4.4300    4.4400    4.4500    4.4600    4.4700
    4.4800    4.4900    4.5000    4.5100    4.5200    4.5300    4.5400    4.5500
    4.5600    4.5700    4.5800    4.5900    4.6000    4.6100    4.6200    4.6300
    4.6400    4.6500    4.6600    4.6700    4.6800    4.6900    4.7000    4.7100
    4.7200    4.7300    4.7400    4.7500    4.7600    4.7700    4.7800    4.7900
    4.8000    4.8100    4.8200    4.8300    4.8400    4.8500    4.8600    4.8700
    4.8800    4.8900    4.9000    4.9100    4.9200    4.9300    4.9400    4.9500
    4.9600    4.9700    4.9800    4.9900    5.0000    5.0100    5.0200    5.0300
    5.0400    5.0500    5.0600    5.0700    5.0800    5.0900    5.1000    5.1100
    5.1200    5.1300    5.1400    5.1500    5.1600    5.1700    5.1800    5.1900
    5.2000    5.2100    5.2200    5.2300    5.2400    5.2500    5.2600    5.2700
    5.2800    5.2900    5.3000    5.3100    5.3200    5.3300    5.3400    5.3500
    5.3600    5.3700    5.3800    5.3900    5.4000    5.4100    5.4200    5.4300
    5.4400    5.4500    5.4600    5.4700    5.4800    5.4900    5.5000    5.5100
    5.5200    5.5300    5.5400    5.5500    5.5600    5.5700    5.5800    5.5900
    5.6000    5.6100    5.6200    5.6300    5.6400    5.6500    5.6600    5.6700
    5.6800    5.6900    5.7000    5.7100    5.7200    5.7300    5.7400    5.7500
    5.7600    5.7700    5.7800    5.7900    5.8000    5.8100    5.8200    5.8300
    5.8400    5.8500    5.8600    5.8700    5.8800    5.8900    5.9000    5.9100
    5.9200    5.9300    5.9400    5.9500    5.9600    5.9700    5.9800    5.9900
    6.0000    6.0100
   </PP_R>
   <PP_RAB type="real"  size=" 602" columns="8">
    0.0100    0.0100    0.0100    0.0100    0.0100    0.0100    0.0100    0.0100
    0.0100    0.0100    0.0100    0.0100    0.0100    0.0100    0.0100    0.0100
    0.0100    0.0100    0.0100    0.0100    0.0100    0.0100    0.0100    0.0100
    0.0100    0.0100    0.0100    0.0100    0.0100    0.0100    0.0100    0.0100
    0.0100    0.0100    0.0100    0.0100    0.0100    0.0100    0.0100    0.0100
    0.0100    0.0100    0.0100    0.0100    0.0100    0.0100    0.0100    0.0100
    0.0100    0.0100    0.0100    0.0100    0.0100    0.0100    0.0100    0.0100
    0.0100    0.0100    0.0100    0.0100    0.0100    0.0100    0.0100    0.0100
    0.0100    0.0100    0.0100    0.0100    0.0100    0.0100    0.0100    0.0100
    0.0100    0.0100    0.0100    0.0100    0.0100    0.0100    0.0100    0.0100
    0.0100    0.0100    0.0100    0.0100    0.0100    0.0100    0.0100    0.0100
    0.0100    0.0100    0.0100    0.0100    0.0100    0.0100    0.0100    0.0100
    0.0100    0.0100    0.0100    0.0100    0.0100    0.0100    0.0100    0.0100
    0.0100    0.0100    0.0100    0.0100    0.0100    0.0100    0.0100    0.0100
    0.0100    0.0100    0.0100    0.0100    0.0100    0.0100    0.0100    0.0100
    0.0100    0.0100    0.0100    0.0100    0.0100    0.0100    0.0100    0.0100
    0.0100    0.0100    0.0100    0.0100    0.0100    0.0100    0.0100    0.0100
    0.0100    0.0100    0.0100    0.0100    0.0100    0.0100    0.0100    0.0100
    0.0100    0.0100    0.0100    0.0100    0.0100    0.0100    0.0100    0.0100
    0.0100    0.0100    0.0100    0.0100    0.0100    0.0100    0.0100    0.0100
    0.0100    0.0100    0.0100    0.0100    0.0100    0.0100    0.0100    0.0100
    0.0100    0.0100    0.0100    0.0100    0.0100    0.0100    0.0100    0.0100
    0.0100    0.0100    0.0100    0.0100    0.0100    0.0100    0.0100    0.0100
    0.0100    0.0100    0.0100    0.0100    0.0100    0.0100    0.0100    0.0100
    0.0100    0.0100    0.0100    0.0100    0.0100    0.0100    0.0100    0.0100
    0.0100    0.0100    0.0100    0.0100    0.0100    0.0100    0.0100    0.0100
    0.0100    0.0100    0.0100    0.0100    0.0100    0.0100    0.0100    0.0100
    0.0100    0.0100    0.0100    0.0100    0.0100    0.0100    0.0100    0.0100
    0.0100    0.0100    0.0100    0.0100    0.0100    0.0100    0.0100    0.0100
    0.0100    0.0100    0.0100    0.0100    0.0100    0.0100    0.0100    0.0100
    0.0100    0.0100    0.0100    0.0100    0.0100    0.0100    0.0100    0.0100
    0.0100    0.0100    0.0100    0.0100    0.0100    0.0100    0.0100    0.0100
    0.0100    0.0100    0.0100    0.0100    0.0100    0.0100    0.0100    0.0100
    0.0100    0.0100    0.0100    0.0100    0.0100    0.0100    0.0100    0.0100
    0.0100    0.0100    0.0100    0.0100    0.0100    0.0100    0.0100    0.0100
    0.0100    0.0100    0.0100    0.0100    0.0100    0.0100    0.0100    0.0100
    0.0100    0.0100    0.0100    0.0100    0.0100    0.0100    0.0100    0.0100
    0.0100    0.0100    0.0100    0.0100    0.0100    0.0100    0.0100    0.0100
    0.0100    0.0100    0.0100    0.0100    0.0100    0.0100    0.0100    0.0100
    0.0100    0.0100    0.0100    0.0100    0.0100    0.0100    0.0100    0.0100
    0.0100    0.0100    0.0100    0.0100    0.0100    0.0100    0.0100    0.0100
    0.0100    0.0100    0.0100    0.0100    0.0100    0.0100    0.0100    0.0100
    0.0100    0.0100    0.0100    0.0100    0.0100    0.0100    0.0100    0.0100
    0.0100    0.0100    0.0100    0.0100    0.0100    0.0100    0.0100    0.0100
    0.0100    0.0100    0.0100    0.0100    0.0100    0.0100    0.0100    0.0100
    0.0100    0.0100    0.0100    0.0100    0.0100    0.0100    0.0100    0.0100
    0.0100    0.0100    0.0100    0.0100    0.0100    0.0100    0.0100    0.0100
    0.0100    0.0100    0.0100    0.0100    0.0100    0.0100    0.0100    0.0100
    0.0100    0.0100    0.0100    0.0100    0.0100    0.0100    0.0100    0.0100
    0.0100    0.0100    0.0100    0.0100    0.0100    0.0100    0.0100    0.0100
    0.0100    0.0100    0.0100    0.0100    0.0100    0.0100    0.0100    0.0100
    0.0100    0.0100    0.0100    0.0100    0.0100    0.0100    0.0100    0.0100
    0.0100    0.0100    0.0100    0.0100    0.0100    0.0100    0.0100    0.0100
    0.0100    0.0100    0.0100    0.0100    0.0100    0.0100    0.0100    0.0100
    0.0100    0.0100    0.0100    0.0100    0.0100    0.0100    0.0100    0.0100
    0.0100    0.0100    0.0100    0.0100    0.0100    0.0100    0.0100    0.0100
    0.0100    0.0100    0.0100    0.0100    0.0100    0.0100    0.0100    0.0100
    0.0100    0.0100    0.0100    0.0100    0.0100    0.0100    0.0100    0.0100
    0.0100    0.0100    0.0100    0.0100    0.0100    0.0100    0.0100    0.0100
    0.0100    0.0100    0.0100    0.0100    0.0100    0.0100    0.0100    0.0100
    0.0100    0.0100    0.0100    0.0100    0.0100    0.0100    0.0100    0.0100
    0.0100    0.0100    0.0100    0.0100    0.0100    0.0100    0.0100    0.0100
    0.0100    0.0100    0.0100    0.0100    0.0100    0.0100    0.0100    0.0100
    0.0100    0.0100    0.0100    0.0100    0.0100    0.0100    0.0100    0.0100
    0.0100    0.0100    0.0100    0.0100    0.0100    0.0100    0.0100    0.0100
    0.0100    0.0100    0.0100    0.0100    0.0100    0.0100    0.0100    0.0100
    0.0100    0.0100    0.0100    0.0100    0.0100    0.0100    0.0100    0.0100
    0.0100    0.0100    0.0100    0.0100    0.0100    0.0100    0.0100    0.0100
    0.0100    0.0100    0.0100    0.0100    0.0100    0.0100    0.0100    0.0100
    0.0100    0.0100    0.0100    0.0100    0.0100    0.0100    0.0100    0.0100
    0.0100    0.0100    0.0100    0.0100    0.0100    0.0100    0.0100    0.0100
    0.0100    0.0100    0.0100    0.0100    0.0100    0.0100    0.0100    0.0100
    0.0100    0.0100    0.0100    0.0100    0.0100    0.0100    0.0100    0.0100
    0.0100    0.0100    0.0100    0.0100    0.0100    0.0100    0.0100    0.0100
    0.0100    0.0100    0.0100    0.0100    0.0100    0.0100    0.0100    0.0100
    0.0100    0.0100
   </PP_RAB>
 </PP_MESH>
  <PP_LOCAL type="real"  size=" 602" columns="4">
   -4.6011561080E+01   -4.6010786684E+01   -4.6008649498E+01   -4.6004927796E+01
   -4.5999399855E+01   -4.5991787874E+01   -4.5981784097E+01   -4.5969076887E+01
   -4.5953373595E+01   -4.5934418121E+01   -4.5912002228E+01   -4.5885970779E+01
   -4.5856221779E+01   -4.5822702526E+01   -4.5785403250E+01   -4.5744349473E+01
   -4.5699594086E+01   -4.5651209834E+01   -4.5599282641E+01   -4.5543905976E+01
   -4.5485176311E+01   -4.5423189605E+01   -4.5358038716E+01   -4.5289811566E+01
   -4.5218589944E+01   -4.5144448788E+01   -4.5067455827E+01   -4.4987671498E+01
   -4.4905149044E+01   -4.4819934731E+01   -4.4732068140E+01   -4.4641582497E+01
   -4.4548505024E+01   -4.4452857291E+01   -4.4354655526E+01   -4.4253910963E+01
   -4.4150630114E+01   -4.4044815079E+01   -4.3936463793E+01   -4.3825570303E+01
   -4.3712125032E+01   -4.3596115050E+01   -4.3477524365E+01   -4.3356334235E+01
   -4.3232523521E+01   -4.3106069074E+01   -4.2976946183E+01   -4.2845129068E+01
   -4.2710591441E+01   -4.2573307109E+01   -4.2433250664E+01   -4.2290398210E+01
   -4.2144728100E+01   -4.1996221792E+01   -4.1844864641E+01   -4.1690646658E+01
   -4.1533563459E+01   -4.1373616747E+01   -4.1210815332E+01   -4.1045175325E+01
   -4.0876720978E+01   -4.0705484778E+01   -4.0531507665E+01   -4.0354839358E+01
   -4.0175537869E+01   -3.9993669520E+01   -3.9809308640E+01   -3.9622536860E+01
   -3.9433442528E+01   -3.9242120330E+01   -3.9048670270E+01   -3.8853196970E+01
   -3.8655808895E+01   -3.8456617564E+01   -3.8255736869E+01   -3.8053282249E+01
   -3.7849370064E+01   -3.7644116984E+01   -3.7437639446E+01   -3.7230053169E+01
   -3.7021472740E+01   -3.6812011265E+01   -3.6601780070E+01   -3.6390888467E+01
   -3.6179443553E+01   -3.5967550064E+01   -3.5755310253E+01   -3.5542823794E+01
   -3.5330187717E+01   -3.5117496346E+01   -3.4904841254E+01   -3.4692311229E+01
   -3.4479992229E+01   -3.4267967357E+01   -3.4056316812E+01   -3.3845117858E+01
   -3.3634444773E+01   -3.3424368808E+01   -3.3214958251E+01   -3.3006277992E+01
   -3.2798389815E+01   -3.2591352219E+01   -3.2385220353E+01   -3.2180045948E+01
   -3.1975877483E+01   -3.1772759461E+01   -3.1570732864E+01   -3.1369835036E+01
   -3.1170099605E+01   -3.0971556855E+01   -3.0774232446E+01   -3.0578148603E+01
   -3.0383323809E+01   -3.0189773253E+01   -2.9997507677E+01   -2.9806534440E+01
   -2.9616857641E+01   -2.9428478572E+01   -2.9241394359E+01   -2.9055599874E+01
   -2.8871087736E+01   -2.8687847857E+01   -2.8505868207E+01   -2.8325135571E+01
   -2.8145635407E+01   -2.7967352343E+01   -2.7790270943E+01   -2.7614375579E+01
   -2.7439651508E+01   -2.7266084748E+01   -2.7093662265E+01   -2.6922373503E+01
   -2.6752208980E+01   -2.6583161600E+01   -2.6415227350E+01   -2.6248403165E+01
   -2.6082690096E+01   -2.5918091189E+01   -2.5754611041E+01   -2.5592258582E+01
   -2.5431043113E+01   -2.5270977136E+01   -2.5112074724E+01   -2.4954350820E+01
   -2.4797822718E+01   -2.4642507555E+01   -2.4488423767E+01   -2.4335589485E+01
   -2.4184023190E+01   -2.4033742095E+01   -2.3884763927E+01   -2.3737103350E+01
   -2.3590775605E+01   -2.3445792254E+01   -2.3302164205E+01   -2.3159899388E+01
   -2.3019003030E+01   -2.2879478849E+01   -2.2741325618E+01   -2.2604542384E+01
   -2.2469121332E+01   -2.2335056569E+01   -2.2202334274E+01   -2.2070943636E+01
   -2.1940866155E+01   -2.1812086277E+01   -2.1684582770E+01   -2.1558336329E+01
   -2.1433324763E+01   -2.1309526582E+01   -2.1186920455E+01   -2.1065484359E+01
   -2.0945199576E+01   -2.0826045039E+01   -2.0708005911E+01   -2.0591063607E+01
   -2.0475207382E+01   -2.0360422610E+01   -2.0246701980E+01   -2.0134035548E+01
   -2.0022418575E+01   -1.9911845578E+01   -1.9802313501E+01   -1.9693820173E+01
   -1.9586363582E+01   -1.9479942951E+01   -1.9374557001E+01   -1.9270204192E+01
   -1.9166883472E+01   -1.9064592143E+01   -1.8963328613E+01   -1.8863089376E+01
   -1.8763871738E+01   -1.8665671465E+01   -1.8568483396E+01   -1.8472302929E+01
   -1.8377121871E+01   -1.8282934731E+01   -1.8189731348E+01   -1.8097503444E+01
   -1.8006240733E+01   -1.7915931769E+01   -1.7826566149E+01   -1.7738130276E+01
   -1.7650612401E+01   -1.7563998635E+01   -1.7478275292E+01   -1.7393428710E+01
   -1.7309444165E+01   -1.7226307507E+01   -1.7144004122E+01   -1.7062519386E+01
   -1.6981838808E+01   -1.6901948236E+01   -1.6822832897E+01   -1.6744479368E+01
   -1.6666873787E+01   -1.6590002315E+01   -1.6513852805E+01   -1.6438411679E+01
   -1.6363667265E+01   -1.6289608101E+01   -1.6216221481E+01   -1.6143498020E+01
   -1.6071426553E+01   -1.5999996872E+01   -1.5929200652E+01   -1.5859027823E+01
   -1.5789470499E+01   -1.5720520871E+01   -1.5652170259E+01   -1.5584411624E+01
   -1.5517237281E+01   -1.5450639569E+01   -1.5384611317E+01   -1.5319144901E+01
   -1.5254233140E+01   -1.5189869335E+01   -1.5126046258E+01   -1.5062757289E+01
   -1.4999995908E+01   -1.4937755137E+01   -1.4876028835E+01   -1.4814810734E+01
   -1.4754094145E+01   -1.4693873335E+01   -1.4634142270E+01   -1.4574894576E+01
   -1.4516124839E+01   -1.4457827265E+01   -1.4399995814E+01   -1.4342625321E+01
   -1.4285710256E+01   -1.4229244864E+01   -1.4173224226E+01   -1.4117643076E+01
   -1.4062495903E+01   -1.4007778027E+01   -1.3953484452E+01   -1.3899609863E+01
   -1.3846149824E+01   -1.3793099573E+01   -1.3740454050E+01   -1.3688208963E+01
   -1.3636359803E+01   -1.3584901776E+01   -1.3533830684E+01   -1.3483142278E+01
   -1.3432832027E+01   -1.3382895796E+01   -1.3333329589E+01   -1.3284129149E+01
   -1.3235290364E+01   -1.3186809493E+01   -1.3138682552E+01   -1.3090905426E+01
   -1.3043474622E+01   -1.2996386390E+01   -1.2949636722E+01   -1.2903222233E+01
   -1.2857139388E+01   -1.2811384449E+01   -1.2765953951E+01   -1.2720844627E+01
   -1.2676053013E+01   -1.2631575546E+01   -1.2587409209E+01   -1.2543550753E+01
   -1.2499996710E+01   -1.2456744095E+01   -1.2413789875E+01   -1.2371130860E+01
   -1.2328763901E+01   -1.2286686232E+01   -1.2244894898E+01   -1.2203386720E+01
   -1.2162159037E+01   -1.2121209076E+01   -1.2080533937E+01   -1.2040130742E+01
   -1.1999996991E+01   -1.1960129996E+01   -1.1920526882E+01   -1.1881185174E+01
   -1.1842102381E+01   -1.1803275913E+01   -1.1764703035E+01   -1.1726381524E+01
   -1.1688308939E+01   -1.1650482721E+01   -1.1612900463E+01   -1.1575559971E+01
   -1.1538458920E+01   -1.1501594798E+01   -1.1464965481E+01   -1.1428568812E+01
   -1.1392402568E+01   -1.1356464308E+01   -1.1320752141E+01   -1.1285263952E+01
   -1.1249997574E+01   -1.1214950784E+01   -1.1180121744E+01   -1.1145508438E+01
   -1.1111108759E+01   -1.1076920675E+01   -1.1042942401E+01   -1.1009172015E+01
   -1.0975607483E+01   -1.0942246924E+01   -1.0909088617E+01   -1.0876130729E+01
   -1.0843371302E+01   -1.0810808580E+01   -1.0778440910E+01   -1.0746266543E+01
   -1.0714283606E+01   -1.0682490437E+01   -1.0650885455E+01   -1.0619466995E+01
   -1.0588233272E+01   -1.0557182690E+01   -1.0526313751E+01   -1.0495624866E+01
   -1.0465114345E+01   -1.0434780632E+01   -1.0404622316E+01   -1.0374637883E+01
   -1.0344825741E+01   -1.0315184354E+01   -1.0285712400E+01   -1.0256408434E+01
   -1.0227270975E+01   -1.0198298476E+01   -1.0169489713E+01   -1.0140843310E+01
   -1.0112357888E+01   -1.0084031893E+01   -1.0055864184E+01   -1.0027853452E+01
   -9.9999983842E+00   -9.9722975388E+00   -9.9447497195E+00   -9.9173537298E+00
   -9.8901083180E+00   -9.8630121626E+00   -9.8360639923E+00   -9.8092627247E+00
   -9.7826071666E+00   -9.7560961233E+00   -9.7297282338E+00   -9.7035025289E+00
   -9.6774178709E+00   -9.6514731223E+00   -9.6256670452E+00   -9.5999985589E+00
   -9.5744666516E+00   -9.5490702386E+00   -9.5238082185E+00   -9.4986793796E+00
   -9.4736828356E+00   -9.4488175525E+00   -9.4240824960E+00   -9.3994765391E+00
   -9.3749986947E+00   -9.3506480489E+00   -9.3264236160E+00   -9.3023244098E+00
   -9.2783492922E+00   -9.2544974692E+00   -9.2307680050E+00   -9.2071599596E+00
   -9.1836723406E+00   -9.1603041697E+00   -9.1370546549E+00   -9.1139229001E+00
   -9.0909080091E+00   -9.0680089892E+00   -9.0452250089E+00   -9.0225552711E+00
   -8.9999989213E+00   -8.9775551049E+00   -8.9552228391E+00   -8.9330014126E+00
   -8.9108900301E+00   -8.8888878769E+00   -8.8669941295E+00   -8.8452078498E+00
   -8.8235283950E+00   -8.8019549884E+00   -8.7804868533E+00   -8.7591231858E+00
   -8.7378631285E+00   -8.7167060550E+00   -8.6956512247E+00   -8.6746978973E+00
   -8.6538452956E+00   -8.6330926217E+00   -8.6124392719E+00   -8.5918845401E+00
   -8.5714277204E+00   -8.5510680696E+00   -8.5308048286E+00   -8.5106374228E+00
   -8.4905651791E+00   -8.4705874244E+00   -8.4507034559E+00   -8.4309125342E+00
   -8.4112141199E+00   -8.3916075712E+00   -8.3720922465E+00   -8.3526674892E+00
   -8.3333325619E+00   -8.3140869660E+00   -8.2949300895E+00   -8.2758613208E+00
   -8.2568800480E+00   -8.2379855418E+00   -8.2191773265E+00   -8.2004548263E+00
   -8.1818174579E+00   -8.1632646380E+00   -8.1447956957E+00   -8.1264101174E+00
   -8.1081073835E+00   -8.0898869377E+00   -8.0717482240E+00   -8.0536906359E+00
   -8.0357136066E+00   -8.0178166771E+00   -7.9999993169E+00   -7.9822609960E+00
   -7.9646011776E+00   -7.9470192292E+00   -7.9295147548E+00   -7.9120872490E+00
   -7.8947362060E+00   -7.8774611205E+00   -7.8602614141E+00   -7.8431366255E+00
   -7.8260863156E+00   -7.8091100025E+00   -7.7922072042E+00   -7.7753774225E+00
   -7.7586200990E+00   -7.7419348695E+00   -7.7253212745E+00   -7.7087788546E+00
   -7.6923071501E+00   -7.6759056367E+00   -7.6595738863E+00   -7.6433115063E+00
   -7.6271180587E+00   -7.6109931053E+00   -7.5949362081E+00   -7.5789468266E+00
   -7.5630246406E+00   -7.5471692362E+00   -7.5313801957E+00   -7.5156571012E+00
   -7.4999995056E+00   -7.4844069505E+00   -7.4688791129E+00   -7.4534155945E+00
   -7.4380159971E+00   -7.4226799226E+00   -7.4074069188E+00   -7.3921966015E+00
   -7.3770486401E+00   -7.3619626549E+00   -7.3469382663E+00   -7.3319750945E+00
   -7.3170726904E+00   -7.3022307251E+00   -7.2874488672E+00   -7.2727267548E+00
   -7.2580640259E+00   -7.2434603185E+00   -7.2289151927E+00   -7.2144283580E+00
   -7.1999994887E+00   -7.1856282398E+00   -7.1713142662E+00   -7.1570572228E+00
   -7.1428566852E+00   -7.1287123847E+00   -7.1146240081E+00   -7.1005912263E+00
   -7.0866137104E+00   -7.0726911312E+00   -7.0588230860E+00   -7.0450093121E+00
   -7.0312495151E+00   -7.0175433812E+00   -7.0038905967E+00   -6.9902908480E+00
   -6.9767437588E+00   -6.9632490589E+00   -6.9498064778E+00   -6.9364157165E+00
   -6.9230764759E+00   -6.9097884569E+00   -6.8965513155E+00   -6.8833647599E+00
   -6.8702285491E+00   -6.8571423982E+00   -6.8441060218E+00   -6.8311191349E+00
   -6.8181814310E+00   -6.8052925838E+00   -6.7924523868E+00   -6.7796605681E+00
   -6.7669168559E+00   -6.7542209782E+00   -6.7415726633E+00   -6.7289715627E+00
   -6.7164174846E+00   -6.7039101775E+00   -6.6914493822E+00   -6.6790348395E+00
   -6.6666662902E+00   -6.6543434334E+00   -6.6420660158E+00   -6.6298338319E+00
   -6.6176466345E+00   -6.6055041765E+00   -6.5934062107E+00   -6.5813524888E+00
   -6.5693426863E+00   -6.5573766461E+00   -6.5454541325E+00   -6.5335749100E+00
   -6.5217387430E+00   -6.5099453958E+00   -6.4981945969E+00   -6.4864861079E+00
   -6.4748197475E+00   -6.4631952912E+00   -6.4516125143E+00   -6.4400711922E+00
   -6.4285711002E+00   -6.4171119514E+00   -6.4056935770E+00   -6.3943157774E+00
   -6.3829783385E+00   -6.3716810462E+00   -6.3604236863E+00   -6.3492060380E+00
   -6.3380278264E+00   -6.3268889152E+00   -6.3157891003E+00   -6.3047281775E+00
   -6.2937059427E+00   -6.2827221916E+00   -6.2717766989E+00   -6.2608692316E+00
   -6.2499996474E+00   -6.2391677517E+00   -6.2283733497E+00   -6.2176162469E+00
   -6.2068962485E+00   -6.1962131310E+00   -6.1855666889E+00   -6.1749567795E+00
   -6.1643832175E+00   -6.1538458171E+00   -6.1433443928E+00   -6.1328787589E+00
   -6.1224486994E+00   -6.1120540228E+00   -6.1016945920E+00   -6.0913702300E+00
   -6.0810807599E+00   -6.0708260047E+00   -6.0606057876E+00   -6.0504199051E+00
   -6.0402681673E+00   -6.0301504477E+00   -6.0200665777E+00   -6.0100163886E+00
   -5.9999997116E+00   -5.9900163780E+00
  </PP_LOCAL>
 <PP_NONLOCAL>
   <PP_BETA.1
       type="real"
       size=" 602"
       columns="4"
       index="1"
       angular_momentum="0"
       cutoff_radius_index=" 230"
       cutoff_radius="    2.2900000000E+00" >
    0.0000000000E+00   -4.2178412867E-02   -8.4310950784E-02   -1.2635181054E-01
   -1.6825533225E-01   -2.0997607071E-01   -2.5146886630E-01   -2.9268891538E-01
   -3.3359183997E-01   -3.7413375670E-01   -4.1427134477E-01   -4.5396191283E-01
   -4.9316346474E-01   -5.3183476396E-01   -5.6993539653E-01   -6.0742583253E-01
   -6.4426748583E-01   -6.8042277207E-01   -7.1585516482E-01   -7.5052924970E-01
   -7.8441077642E-01   -8.1746670869E-01   -8.4966527181E-01   -8.8097599795E-01
   -9.1136976899E-01   -9.4081885680E-01   -9.6929696110E-01   -9.9677924449E-01
   -1.0232423649E+00   -1.0486645051E+00   -1.0730253999E+00   -1.0963063600E+00
   -1.1184902930E+00   -1.1395617216E+00   -1.1595067994E+00   -1.1783133226E+00
   -1.1959707399E+00   -1.2124701586E+00   -1.2278043482E+00   -1.2419677409E+00
   -1.2549564290E+00   -1.2667681596E+00   -1.2774023265E+00   -1.2868599584E+00
   -1.2951437057E+00   -1.3022578230E+00   -1.3082081498E+00   -1.3130020880E+00
   -1.3166485773E+00   -1.3191580676E+00   -1.3205424884E+00   -1.3208152165E+00
   -1.3199910426E+00   -1.3180861315E+00   -1.3151179842E+00   -1.3111053983E+00
   -1.3060684184E+00   -1.3000283013E+00   -1.2930074539E+00   -1.2850294017E+00
   -1.2761187213E+00   -1.2663009998E+00   -1.2556027816E+00   -1.2440514993E+00
   -1.2316754390E+00   -1.2185036705E+00   -1.2045659837E+00   -1.1898928439E+00