<UPF version="2.0.1">
  <PP_INFO>

 P_ONCV_PBE_FR-1.1.upf

 This pseudopotential file has been produced using the code
 ONCVPSP  (Optimized Norm-Conservinng Vanderbilt PSeudopotential)
 fully-relativistic version 2.1.1, 03/26/2014 by D. R. Hamann
 The code is available through a link at URL www.mat-simresearch.com.
 Documentation with the package provides a full description of the
 input data below.

 While it is not required under the terms of the GNU GPL, it is
 suggested that you cite D. R. Hamann, Phys. Rev. B 88, 085117 (2013)
 in any publication using these pseudopotentials.

 -----

 This pseudopotential was produced with the SG15 1.0 and/or 1.1
 parameter sets, the Schlipf-Gygi norm-conserving pseudopotential
 library. For details of the construction and testing of the
 pseudopotential please refer to:

 M. Schlipf, F. Gygi, Comp. Phys. Comm. 196, 36 (2015)
 http://dx.doi.org/10.1016/j.cpc.2015.05.011

 The above authors kindly ask that you include this reference in all
 publications associated to this pseudopotential.

 Please note this fully-relativistic version does not employ the
 above self-consistent procedure at the fully-relativistic level.

 -----

 This pseudopotential was produced by Peter Scherpelz for the purpose
 of performing GW calculations with spin-orbit-coupling. Please see
 the publication:

 P. Scherpelz, M. Govoni, I. Hamada, G. Galli; J. Chem. Theory Comput. (2016)
 http://dx.doi.org/10.1021/acs.jctc.6b00114

 If you use these pseudopotentials in your work, we also kindly ask
 that you cite the above publication.

 -----

 This work is licensed under the Creative Commons Attribution-ShareAlike 
 4.0 International License. To view a copy of this license, visit 
 http://creativecommons.org/licenses/by-sa/4.0/ or send a letter to 
 Creative Commons, PO Box 1866, Mountain View, CA 94042, USA.

 The SG15 library is Copyright 2015 The Regents of the University of
 California.  Further modifications of these files are Copyright 2016
 Peter Scherpelz.

    <PP_INPUTFILE>
# ATOM AND REFERENCE CONFIGURATION
# atsym  z    nc    nv    iexc   psfile
  P 15.00     3     2     4      upf
#
#   n    l    f        energy (Ha)
    1    0    2.00
    2    0    2.00
    2    1    6.00
    3    0    2.00
    3    1    3.00
#
# PSEUDOPOTENTIAL AND OPTIMIZATION
# lmax
    1
#
#   l,   rc,     ep,   ncon, nbas, qcut
    0    2.59   -0.51    5    8    6.94
    1    1.73   -0.20    5    8    8.86
#
# LOCAL POTENTIAL
# lloc, lpopt,  rc(5),   dvloc0
    4    5      1.10       0.00
#
# VANDERBILT-KLEINMAN-BYLANDER PROJECTORs
# l, nproj, debl
    0    2    1.2297
    1    2    2.5379
#
# MODEL CORE CHARGE
# icmod, fcfact
    0    0.00
#
# LOG DERIVATIVE ANALYSIS
# epsh1, epsh2, depsh
   -5.00    3.00    0.02
#
# OUTPUT GRID
# rlmax, drl
    6.00    0.01
#
# TEST CONFIGURATIONS
# ncnf
    0
# nvcnf
#   n    l    f
    </PP_INPUTFILE>
  </PP_INFO>
  <!--                               -->
  <!-- END OF HUMAN READABLE SECTION -->
  <!--                               -->
    <PP_HEADER
       generated="Generated using ONCVPSP code by D. R. Hamann"
       author="anonymous"
       date="150703"
       comment=""
       element="P "
       pseudo_type="NC"
       relativistic="full"
       is_ultrasoft="F"
       is_paw="F"
       is_coulomb="F"
       has_so="T"
       has_wfc="F"
       has_gipaw="F"
       core_correction="F"
       functional="PBE"
       z_valence="    5.00"
       total_psenergy="  -6.39950198247E+00"
       rho_cutoff="   6.01000000000E+00"
       l_max="1"
       l_local="-1"
       mesh_size="   602"
       number_of_wfc="0"
       number_of_proj="6"/>
 <PP_MESH>
   <PP_R type="real"  size=" 602" columns="8">
    0.0000    0.0100    0.0200    0.0300    0.0400    0.0500    0.0600    0.0700
    0.0800    0.0900    0.1000    0.1100    0.1200    0.1300    0.1400    0.1500
    0.1600    0.1700    0.1800    0.1900    0.2000    0.2100    0.2200    0.2300
    0.2400    0.2500    0.2600    0.2700    0.2800    0.2900    0.3000    0.3100
    0.3200    0.3300    0.3400    0.3500    0.3600    0.3700    0.3800    0.3900
    0.4000    0.4100    0.4200    0.4300    0.4400    0.4500    0.4600    0.4700
    0.4800    0.4900    0.5000    0.5100    0.5200    0.5300    0.5400    0.5500
    0.5600    0.5700    0.5800    0.5900    0.6000    0.6100    0.6200    0.6300
    0.6400    0.6500    0.6600    0.6700    0.6800    0.6900    0.7000    0.7100
    0.7200    0.7300    0.7400    0.7500    0.7600    0.7700    0.7800    0.7900
    0.8000    0.8100    0.8200    0.8300    0.8400    0.8500    0.8600    0.8700
    0.8800    0.8900    0.9000    0.9100    0.9200    0.9300    0.9400    0.9500
    0.9600    0.9700    0.9800    0.9900    1.0000    1.0100    1.0200    1.0300
    1.0400    1.0500    1.0600    1.0700    1.0800    1.0900    1.1000    1.1100
    1.1200    1.1300    1.1400    1.1500    1.1600    1.1700    1.1800    1.1900
    1.2000    1.2100    1.2200    1.2300    1.2400    1.2500    1.2600    1.2700
    1.2800    1.2900    1.3000    1.3100    1.3200    1.3300    1.3400    1.3500
    1.3600    1.3700    1.3800    1.3900    1.4000    1.4100    1.4200    1.4300
    1.4400    1.4500    1.4600    1.4700    1.4800    1.4900    1.5000    1.5100
    1.5200    1.5300    1.5400    1.5500    1.5600    1.5700    1.5800    1.5900
    1.6000    1.6100    1.6200    1.6300    1.6400    1.6500    1.6600    1.6700
    1.6800    1.6900    1.7000    1.7100    1.7200    1.7300    1.7400    1.7500
    1.7600    1.7700    1.7800    1.7900    1.8000    1.8100    1.8200    1.8300
    1.8400    1.8500    1.8600    1.8700    1.8800    1.8900    1.9000    1.9100
    1.9200    1.9300    1.9400    1.9500    1.9600    1.9700    1.9800    1.9900
    2.0000    2.0100    2.0200    2.0300    2.0400    2.0500    2.0600    2.0700
    2.0800    2.0900    2.1000    2.1100    2.1200    2.1300    2.1400    2.1500
    2.1600    2.1700    2.1800    2.1900    2.2000    2.2100    2.2200    2.2300
    2.2400    2.2500    2.2600    2.2700    2.2800    2.2900    2.3000    2.3100
    2.3200    2.3300    2.3400    2.3500    2.3600    2.3700    2.3800    2.3900
    2.4000    2.4100    2.4200    2.4300    2.4400    2.4500    2.4600    2.4700
    2.4800    2.4900    2.5000    2.5100    2.5200    2.5300    2.5400    2.5500
    2.5600    2.5700    2.5800    2.5900    2.6000    2.6100    2.6200    2.6300
    2.6400    2.6500    2.6600    2.6700    2.6800    2.6900    2.7000    2.7100
    2.7200    2.7300    2.7400    2.7500    2.7600    2.7700    2.7800    2.7900
    2.8000    2.8100    2.8200    2.8300    2.8400    2.8500    2.8600    2.8700
    2.8800    2.8900    2.9000    2.9100    2.9200    2.9300    2.9400    2.9500
    2.9600    2.9700    2.9800    2.9900    3.0000    3.0100    3.0200    3.0300
    3.0400    3.0500    3.0600    3.0700    3.0800    3.0900    3.1000    3.1100
    3.1200    3.1300    3.1400    3.1500    3.1600    3.1700    3.1800    3.1900
    3.2000    3.2100    3.2200    3.2300    3.2400    3.2500    3.2600    3.2700
    3.2800    3.2900    3.3000    3.3100    3.3200    3.3300    3.3400    3.3500
    3.3600    3.3700    3.3800    3.3900    3.4000    3.4100    3.4200    3.4300
    3.4400    3.4500    3.4600    3.4700    3.4800    3.4900    3.5000    3.5100
    3.5200    3.5300    3.5400    3.5500    3.5600    3.5700    3.5800    3.5900
    3.6000    3.6100    3.6200    3.6300    3.6400    3.6500    3.6600    3.6700
    3.6800    3.6900    3.7000    3.7100    3.7200    3.7300    3.7400    3.7500
    3.7600    3.7700    3.7800    3.7900    3.8000    3.8100    3.8200    3.8300
    3.8400    3.8500    3.8600    3.8700    3.8800    3.8900    3.9000    3.9100
    3.9200    3.9300    3.9400    3.9500    3.9600    3.9700    3.9800    3.9900
    4.0000    4.0100    4.0200    4.0300    4.0400    4.0500    4.0600    4.0700
    4.0800    4.0900    4.1000    4.1100    4.1200    4.1300    4.1400    4.1500
    4.1600    4.1700    4.1800    4.1900    4.2000    4.2100    4.2200    4.2300
    4.2400    4.2500    4.2600    4.2700    4.2800    4.2900    4.3000    4.3100
    4.3200    4.3300    4.3400    4.3500    4.3600    4.3700    4.3800    4.3900
    4.4000    4.4100    4.4200    4.4300    4.4400    4.4500    4.4600    4.4700
    4.4800    4.4900    4.5000    4.5100    4.5200    4.5300    4.5400    4.5500
    4.5600    4.5700    4.5800    4.5900    4.6000    4.6100    4.6200    4.6300
    4.6400    4.6500    4.6600    4.6700    4.6800    4.6900    4.7000    4.7100
    4.7200    4.7300    4.7400    4.7500    4.7600    4.7700    4.7800    4.7900
    4.8000    4.8100    4.8200    4.8300    4.8400    4.8500    4.8600    4.8700
    4.8800    4.8900    4.9000    4.9100    4.9200    4.9300    4.9400    4.9500
    4.9600    4.9700    4.9800    4.9900    5.0000    5.0100    5.0200    5.0300
    5.0400    5.0500    5.0600    5.0700    5.0800    5.0900    5.1000    5.1100
    5.1200    5.1300    5.1400    5.1500    5.1600    5.1700    5.1800    5.1900
    5.2000    5.2100    5.2200    5.2300    5.2400    5.2500    5.2600    5.2700
    5.2800    5.2900    5.3000    5.3100    5.3200    5.3300    5.3400    5.3500
    5.3600    5.3700    5.3800    5.3900    5.4000    5.4100    5.4200    5.4300
    5.4400    5.4500    5.4600    5.4700    5.4800    5.4900    5.5000    5.5100
    5.5200    5.5300    5.5400    5.5500    5.5600    5.5700    5.5800    5.5900
    5.6000    5.6100    5.6200    5.6300    5.6400    5.6500    5.6600    5.6700
    5.6800    5.6900    5.7000    5.7100    5.7200    5.7300    5.7400    5.7500
    5.7600    5.7700    5.7800    5.7900    5.8000    5.8100    5.8200    5.8300
    5.8400    5.8500    5.8600    5.8700    5.8800    5.8900    5.9000    5.9100
    5.9200    5.9300    5.9400    5.9500    5.9600    5.9700    5.9800    5.9900
    6.0000    6.0100
   </PP_R>
   <PP_RAB type="real"  size=" 602" columns="8">
    0.0100    0.0100    0.0100    0.0100    0.0100    0.0100    0.0100    0.0100
    0.0100    0.0100    0.0100    0.0100    0.0100    0.0100    0.0100    0.0100
    0.0100    0.0100    0.0100    0.0100    0.0100    0.0100    0.0100    0.0100
    0.0100    0.0100    0.0100    0.0100    0.0100    0.0100    0.0100    0.0100
    0.0100    0.0100    0.0100    0.0100    0.0100    0.0100    0.0100    0.0100
    0.0100    0.0100    0.0100    0.0100    0.0100    0.0100    0.0100    0.0100
    0.0100    0.0100    0.0100    0.0100    0.0100    0.0100    0.0100    0.0100
    0.0100    0.0100    0.0100    0.0100    0.0100    0.0100    0.0100    0.0100
    0.0100    0.0100    0.0100    0.0100    0.0100    0.0100    0.0100    0.0100
    0.0100    0.0100    0.0100    0.0100    0.0100    0.0100    0.0100    0.0100
    0.0100    0.0100    0.0100    0.0100    0.0100    0.0100    0.0100    0.0100
    0.0100    0.0100    0.0100    0.0100    0.0100    0.0100    0.0100    0.0100
    0.0100    0.0100    0.0100    0.0100    0.0100    0.0100    0.0100    0.0100
    0.0100    0.0100    0.0100    0.0100    0.0100    0.0100    0.0100    0.0100
    0.0100    0.0100    0.0100    0.0100    0.0100    0.0100    0.0100    0.0100
    0.0100    0.0100    0.0100    0.0100    0.0100    0.0100    0.0100    0.0100
    0.0100    0.0100    0.0100    0.0100    0.0100    0.0100    0.0100    0.0100
    0.0100    0.0100    0.0100    0.0100    0.0100    0.0100    0.0100    0.0100
    0.0100    0.0100    0.0100    0.0100    0.0100    0.0100    0.0100    0.0100
    0.0100    0.0100    0.0100    0.0100    0.0100    0.0100    0.0100    0.0100
    0.0100    0.0100    0.0100    0.0100    0.0100    0.0100    0.0100    0.0100
    0.0100    0.0100    0.0100    0.0100    0.0100    0.0100    0.0100    0.0100
    0.0100    0.0100    0.0100    0.0100    0.0100    0.0100    0.0100    0.0100
    0.0100    0.0100    0.0100    0.0100    0.0100    0.0100    0.0100    0.0100
    0.0100    0.0100    0.0100    0.0100    0.0100    0.0100    0.0100    0.0100
    0.0100    0.0100    0.0100    0.0100    0.0100    0.0100    0.0100    0.0100
    0.0100    0.0100    0.0100    0.0100    0.0100    0.0100    0.0100    0.0100
    0.0100    0.0100    0.0100    0.0100    0.0100    0.0100    0.0100    0.0100
    0.0100    0.0100    0.0100    0.0100    0.0100    0.0100    0.0100    0.0100
    0.0100    0.0100    0.0100    0.0100    0.0100    0.0100    0.0100    0.0100
    0.0100    0.0100    0.0100    0.0100    0.0100    0.0100    0.0100    0.0100
    0.0100    0.0100    0.0100    0.0100    0.0100    0.0100    0.0100    0.0100
    0.0100    0.0100    0.0100    0.0100    0.0100    0.0100    0.0100    0.0100
    0.0100    0.0100    0.0100    0.0100    0.0100    0.0100    0.0100    0.0100
    0.0100    0.0100    0.0100    0.0100    0.0100    0.0100    0.0100    0.0100
    0.0100    0.0100    0.0100    0.0100    0.0100    0.0100    0.0100    0.0100
    0.0100    0.0100    0.0100    0.0100    0.0100    0.0100    0.0100    0.0100
    0.0100    0.0100    0.0100    0.0100    0.0100    0.0100    0.0100    0.0100
    0.0100    0.0100    0.0100    0.0100    0.0100    0.0100    0.0100    0.0100
    0.0100    0.0100    0.0100    0.0100    0.0100    0.0100    0.0100    0.0100
    0.0100    0.0100    0.0100    0.0100    0.0100    0.0100    0.0100    0.0100
    0.0100    0.0100    0.0100    0.0100    0.0100    0.0100    0.0100    0.0100
    0.0100    0.0100    0.0100    0.0100    0.0100    0.0100    0.0100    0.0100
    0.0100    0.0100    0.0100    0.0100    0.0100    0.0100    0.0100    0.0100
    0.0100    0.0100    0.0100    0.0100    0.0100    0.0100    0.0100    0.0100
    0.0100    0.0100    0.0100    0.0100    0.0100    0.0100    0.0100    0.0100
    0.0100    0.0100    0.0100    0.0100    0.0100    0.0100    0.0100    0.0100
    0.0100    0.0100    0.0100    0.0100    0.0100    0.0100    0.0100    0.0100
    0.0100    0.0100    0.0100    0.0100    0.0100    0.0100    0.0100    0.0100
    0.0100    0.0100    0.0100    0.0100    0.0100    0.0100    0.0100    0.0100
    0.0100    0.0100    0.0100    0.0100    0.0100    0.0100    0.0100    0.0100
    0.0100    0.0100    0.0100    0.0100    0.0100    0.0100    0.0100    0.0100
    0.0100    0.0100    0.0100    0.0100    0.0100    0.0100    0.0100    0.0100
    0.0100    0.0100    0.0100    0.0100    0.0100    0.0100    0.0100    0.0100
    0.0100    0.0100    0.0100    0.0100    0.0100    0.0100    0.0100    0.0100
    0.0100    0.0100    0.0100    0.0100    0.0100    0.0100    0.0100    0.0100
    0.0100    0.0100    0.0100    0.0100    0.0100    0.0100    0.0100    0.0100
    0.0100    0.0100    0.0100    0.0100    0.0100    0.0100    0.0100    0.0100
    0.0100    0.0100    0.0100    0.0100    0.0100    0.0100    0.0100    0.0100
    0.0100    0.0100    0.0100    0.0100    0.0100    0.0100    0.0100    0.0100
    0.0100    0.0100    0.0100    0.0100    0.0100    0.0100    0.0100    0.0100
    0.0100    0.0100    0.0100    0.0100    0.0100    0.0100    0.0100    0.0100
    0.0100    0.0100    0.0100    0.0100    0.0100    0.0100    0.0100    0.0100
    0.0100    0.0100    0.0100    0.0100    0.0100    0.0100    0.0100    0.0100
    0.0100    0.0100    0.0100    0.0100    0.0100    0.0100    0.0100    0.0100
    0.0100    0.0100    0.0100    0.0100    0.0100    0.0100    0.0100    0.0100
    0.0100    0.0100    0.0100    0.0100    0.0100    0.0100    0.0100    0.0100
    0.0100    0.0100    0.0100    0.0100    0.0100    0.0100    0.0100    0.0100
    0.0100    0.0100    0.0100    0.0100    0.0100    0.0100    0.0100    0.0100
    0.0100    0.0100    0.0100    0.0100    0.0100    0.0100    0.0100    0.0100
    0.0100    0.0100    0.0100    0.0100    0.0100    0.0100    0.0100    0.0100
    0.0100    0.0100    0.0100    0.0100    0.0100    0.0100    0.0100    0.0100
    0.0100    0.0100    0.0100    0.0100    0.0100    0.0100    0.0100    0.0100
    0.0100    0.0100    0.0100    0.0100    0.0100    0.0100    0.0100    0.0100
    0.0100    0.0100    0.0100    0.0100    0.0100    0.0100    0.0100    0.0100
    0.0100    0.0100
   </PP_RAB>
 </PP_MESH>
  <PP_LOCAL type="real"  size=" 602" columns="4">
   -3.2467875451E+01   -3.2841066319E+01   -3.2955276634E+01   -3.2931317457E+01
   -3.2889999851E+01   -3.2837713000E+01   -3.2775577247E+01   -3.2704169561E+01
   -3.2623941429E+01   -3.2535277100E+01   -3.2438511648E+01   -3.2333943317E+01
   -3.2221843410E+01   -3.2102463758E+01   -3.1976041872E+01   -3.1842804109E+01
   -3.1702967242E+01   -3.1556738824E+01   -3.1404316662E+01   -3.1245887693E+01
   -3.1081626496E+01   -3.0911693621E+01   -3.0736233935E+01   -3.0555375110E+01
   -3.0369226397E+01   -3.0177877737E+01   -2.9981399403E+01   -2.9779842065E+01
   -2.9573237485E+01   -2.9361599723E+01   -2.9144926904E+01   -2.8923203492E+01
   -2.8696403021E+01   -2.8464491179E+01   -2.8227429237E+01   -2.7985177630E+01
   -2.7737699670E+01   -2.7484965273E+01   -2.7226954545E+01   -2.6963661272E+01
   -2.6695096132E+01   -2.6421289560E+01   -2.6142294279E+01   -2.5858187423E+01
   -2.5569072212E+01   -2.5275079167E+01   -2.4976366864E+01   -2.4673122161E+01
   -2.4365560037E+01   -2.4053923064E+01   -2.3738480149E+01   -2.3419524954E+01
   -2.3097374316E+01   -2.2772365849E+01   -2.2444855139E+01   -2.2115213603E+01
   -2.1783824802E+01   -2.1451081896E+01   -2.1117384120E+01   -2.0783133874E+01
   -2.0448733612E+01   -2.0114582838E+01   -1.9781075639E+01   -1.9448598183E+01
   -1.9117526448E+01   -1.8788224869E+01   -1.8461044701E+01   -1.8136322706E+01
   -1.7814380876E+01   -1.7495525998E+01   -1.7180049172E+01   -1.6868225947E+01
   -1.6560316845E+01   -1.6256567638E+01   -1.5957209841E+01   -1.5662461391E+01
   -1.5372526779E+01   -1.5087597990E+01   -1.4807854917E+01   -1.4533465770E+01
   -1.4264587431E+01   -1.4001365731E+01   -1.3743935634E+01   -1.3492421339E+01
   -1.3246936295E+01   -1.3007583143E+01   -1.2774453586E+01   -1.2547628200E+01
   -1.2327176194E+01   -1.2113155133E+01   -1.1905610631E+01   -1.1704576017E+01
   -1.1510071999E+01   -1.1322106328E+01   -1.1140673454E+01   -1.0965754512E+01
   -1.0797316328E+01   -1.0635311436E+01   -1.0479678020E+01   -1.0330339552E+01
   -1.0187204593E+01   -1.0050166623E+01   -9.9191045549E+00   -9.7938809884E+00
   -9.6743428419E+00   -9.5603217277E+00   -9.4516335551E+00   -9.3480791898E+00
   -9.2494428812E+00   -9.1554919716E+00   -9.0659792175E+00   -8.9806297379E+00
   -8.8991266778E+00   -8.8210818844E+00   -8.7460834701E+00   -8.6737070506E+00
   -8.6035305259E+00   -8.5351699168E+00   -8.4682813608E+00   -8.4025610890E+00
   -8.3377713697E+00   -8.2737294073E+00   -8.2102928131E+00   -8.1473668046E+00
   -8.0849016274E+00   -8.0228677594E+00   -7.9612600455E+00   -7.9000949835E+00
   -7.8393943902E+00   -7.7791888743E+00   -7.7195124709E+00   -7.6603988584E+00
   -7.6018816081E+00   -7.5439902163E+00   -7.4867528416E+00   -7.4301926123E+00
   -7.3743285569E+00   -7.3191784123E+00   -7.2647526219E+00   -7.2110608689E+00
   -7.1581089610E+00   -7.1058988550E+00   -7.0544321028E+00   -7.0037053699E+00
   -6.9537151963E+00   -6.9044555940E+00   -6.8559188832E+00   -6.8080969654E+00
   -6.7609793715E+00   -6.7145559486E+00   -6.6688148357E+00   -6.6237441826E+00
   -6.5793313640E+00   -6.5355634861E+00   -6.4924274332E+00   -6.4499098516E+00
   -6.4079973600E+00   -6.3666765721E+00   -6.3259340591E+00   -6.2857566636E+00
   -6.2461311586E+00   -6.2070447449E+00   -6.1684846008E+00   -6.1304383887E+00
   -6.0928938305E+00   -6.0558391361E+00   -6.0192626577E+00   -5.9831532253E+00
   -5.9474998668E+00   -5.9122920880E+00   -5.8775196112E+00   -5.8431726805E+00
   -5.8092417224E+00   -5.7757178252E+00   -5.7425921039E+00   -5.7098564348E+00
   -5.6775025449E+00   -5.6455229941E+00   -5.6139100235E+00   -5.5826568469E+00
   -5.5517562310E+00   -5.5212016901E+00   -5.4909862430E+00   -5.4611038928E+00
   -5.4315482519E+00   -5.4023135279E+00   -5.3733938199E+00   -5.3447835370E+00
   -5.3164772748E+00   -5.2884696126E+00   -5.2607556079E+00   -5.2333299911E+00
   -5.2061881928E+00   -5.1793252518E+00   -5.1527367498E+00   -5.1264181423E+00
   -5.1003650725E+00   -5.0745734168E+00   -5.0490388672E+00   -5.0237576417E+00
   -4.9987256303E+00   -4.9739391737E+00   -4.9493945184E+00   -4.9250879956E+00
   -4.9010162237E+00   -4.8771755387E+00   -4.8535627973E+00   -4.8301746100E+00
   -4.8070077872E+00   -4.7840592926E+00   -4.7613258888E+00   -4.7388047793E+00
   -4.7164929367E+00   -4.6943875207E+00   -4.6724858215E+00   -4.6507849269E+00
   -4.6292823326E+00   -4.6079753386E+00   -4.5868613513E+00   -4.5659379462E+00
   -4.5452025149E+00   -4.5246527398E+00   -4.5042862341E+00   -4.4841005740E+00
   -4.4640935835E+00   -4.4442629289E+00   -4.4246064077E+00   -4.4051219062E+00
   -4.3858071688E+00   -4.3666601803E+00   -4.3476788696E+00   -4.3288611042E+00
   -4.3102049803E+00   -4.2917084732E+00   -4.2733696012E+00   -4.2551865157E+00
   -4.2371572544E+00   -4.2192799650E+00   -4.2015528509E+00   -4.1839740123E+00
   -4.1665417064E+00   -4.1492541870E+00   -4.1321096147E+00   -4.1151063405E+00
   -4.0982426684E+00   -4.0815168199E+00   -4.0649272249E+00   -4.0484722325E+00
   -4.0321501398E+00   -4.0159594290E+00   -3.9998985037E+00   -3.9839657260E+00
   -3.9681596313E+00   -3.9524786787E+00   -3.9369212857E+00   -3.9214860429E+00
   -3.9061714656E+00   -3.8909760044E+00   -3.8758983363E+00   -3.8609370503E+00
   -3.8460905939E+00   -3.8313578051E+00   -3.8167373775E+00   -3.8022278985E+00
   -3.7878282248E+00   -3.7735371408E+00   -3.7593533620E+00   -3.7452757326E+00
   -3.7313030903E+00   -3.7174341985E+00   -3.7036679225E+00   -3.6900031815E+00
   -3.6764388211E+00   -3.6629737118E+00   -3.6496068382E+00   -3.6363371209E+00
   -3.6231634270E+00   -3.6100848087E+00   -3.5971002443E+00   -3.5842086468E+00
   -3.5714090790E+00   -3.5587005838E+00   -3.5460821488E+00   -3.5335528126E+00
   -3.5211116904E+00   -3.5087578465E+00   -3.4964902899E+00   -3.4843082047E+00
   -3.4722107043E+00   -3.4601968509E+00   -3.4482658084E+00   -3.4364167588E+00
   -3.4246488410E+00   -3.4129611726E+00   -3.4013530072E+00   -3.3898235383E+00
   -3.3783719080E+00   -3.3669973640E+00   -3.3556991606E+00   -3.3444765174E+00
   -3.3333286218E+00   -3.3222548007E+00   -3.3112543208E+00   -3.3003264079E+00
   -3.2894703571E+00   -3.2786855005E+00   -3.2679711389E+00   -3.2573265096E+00
   -3.2467510023E+00   -3.2362439547E+00   -3.2258046813E+00   -3.2154324921E+00
   -3.2051268009E+00   -3.1948869717E+00   -3.1847123319E+00   -3.1746022677E+00
   -3.1645562034E+00   -3.1545735327E+00   -3.1446535986E+00   -3.1347958529E+00
   -3.1249997318E+00   -3.1152646571E+00   -3.1055899905E+00   -3.0959752387E+00
   -3.0864198518E+00   -3.0769232702E+00   -3.0674849010E+00   -3.0581042714E+00
   -3.0487808557E+00   -3.0395141141E+00   -3.0303034941E+00   -3.0211485409E+00
   -3.0120487532E+00   -3.0030036126E+00   -2.9940125992E+00   -2.9850752774E+00
   -2.9761911693E+00   -2.9673597796E+00   -2.9585806132E+00   -2.9498532552E+00
   -2.9411772500E+00   -2.9325521274E+00   -2.9239774092E+00   -2.9154527030E+00
   -2.9069775745E+00   -2.8985515800E+00   -2.8901742516E+00   -2.8818452206E+00
   -2.8735640730E+00   -2.8653303931E+00   -2.8571437169E+00   -2.8490037009E+00
   -2.8409099500E+00   -2.8328620693E+00   -2.8248596201E+00   -2.8169022575E+00
   -2.8089896137E+00   -2.8011213122E+00   -2.7932969452E+00   -2.7855161566E+00
   -2.7777786084E+00   -2.7700839415E+00   -2.7624317811E+00   -2.7548217541E+00
   -2.7472535530E+00   -2.7397268356E+00   -2.7322412596E+00   -2.7247964358E+00
   -2.7173920824E+00   -2.7100278746E+00   -2.7027034861E+00   -2.6954185624E+00
   -2.6881727930E+00   -2.6809658874E+00   -2.6737975347E+00   -2.6666674171E+00
   -2.6595751913E+00   -2.6525206010E+00   -2.6455033494E+00   -2.6385231400E+00
   -2.6315796466E+00   -2.6246725933E+00   -2.6178017145E+00   -2.6109667273E+00
   -2.6041673452E+00   -2.5974032492E+00   -2.5906742104E+00   -2.5839799589E+00
   -2.5773202253E+00   -2.5706947185E+00   -2.5641031727E+00   -2.5575453538E+00
   -2.5510210050E+00   -2.5445298689E+00   -2.5380716540E+00   -2.5316461389E+00
   -2.5252530868E+00   -2.5188922527E+00   -2.5125633873E+00   -2.5062662130E+00
   -2.5000005335E+00   -2.4937661152E+00   -2.4875627241E+00   -2.4813901135E+00
   -2.4752480382E+00   -2.4691363034E+00   -2.4630546861E+00   -2.4570029637E+00
   -2.4509808935E+00   -2.4449882566E+00   -2.4390248612E+00   -2.4330904950E+00
   -2.4271849455E+00   -2.4213079768E+00   -2.4154593897E+00   -2.4096389976E+00
   -2.4038465979E+00   -2.3980819882E+00   -2.3923449411E+00   -2.3866352711E+00
   -2.3809527988E+00   -2.3752973310E+00   -2.3696686748E+00   -2.3640666130E+00
   -2.3584909684E+00   -2.3529415706E+00   -2.3474182355E+00   -2.3419207789E+00
   -2.3364489958E+00   -2.3310027119E+00   -2.3255817677E+00   -2.3201859874E+00
   -2.3148151957E+00   -2.3094692010E+00   -2.3041478272E+00   -2.2988509270E+00
   -2.2935783330E+00   -2.2883298779E+00   -2.2831053854E+00   -2.2779046730E+00
   -2.2727276070E+00   -2.2675740278E+00   -2.2624437760E+00   -2.2573366920E+00
   -2.2522525828E+00   -2.2471913295E+00   -2.2421527800E+00   -2.2371367823E+00
   -2.2321431842E+00   -2.2271718108E+00   -2.2222225268E+00   -2.2172951979E+00
   -2.2123896789E+00   -2.2075058250E+00   -2.2026434810E+00   -2.1978024913E+00
   -2.1929827401E+00   -2.1881840892E+00   -2.1834064003E+00   -2.1786495352E+00
   -2.1739133285E+00   -2.1691976699E+00   -2.1645024320E+00   -2.1598274831E+00
   -2.1551726912E+00   -2.1505379138E+00   -2.1459230116E+00   -2.1413278792E+00
   -2.1367523909E+00   -2.1321964211E+00   -2.1276598439E+00   -2.1231425105E+00
   -2.1186443158E+00   -2.1141651471E+00   -2.1097048844E+00   -2.1052634081E+00
   -2.1008405943E+00   -2.0964363022E+00   -2.0920504431E+00   -2.0876829027E+00
   -2.0833335668E+00   -2.0790023212E+00   -2.0746890392E+00   -2.0703936044E+00
   -2.0661159244E+00   -2.0618558905E+00   -2.0576133936E+00   -2.0533883249E+00
   -2.0491805573E+00   -2.0449899929E+00   -2.0408165381E+00   -2.0366600891E+00
   -2.0325205420E+00   -2.0283977930E+00   -2.0242917164E+00   -2.0202022281E+00
   -2.0161292349E+00   -2.0120726377E+00   -2.0080323376E+00   -2.0040082356E+00
   -2.0000002093E+00   -1.9960081835E+00   -1.9920320672E+00   -1.9880717661E+00
   -1.9841271858E+00   -1.9801982319E+00   -1.9762847869E+00   -1.9723867801E+00
   -1.9685041248E+00   -1.9646367308E+00   -1.9607845082E+00   -1.9569473669E+00
   -1.9531251961E+00   -1.9493179254E+00   -1.9455254736E+00   -1.9417477549E+00
   -1.9379846835E+00   -1.9342361737E+00   -1.9305021223E+00   -1.9267824557E+00
   -1.9230770997E+00   -1.9193859728E+00   -1.9157089929E+00   -1.9120460785E+00
   -1.9083971357E+00   -1.9047620836E+00   -1.9011408571E+00   -1.8975333780E+00
   -1.8939395684E+00   -1.8903593502E+00   -1.8867926408E+00   -1.8832393485E+00
   -1.8796994180E+00   -1.8761727749E+00   -1.8726593448E+00   -1.8691590535E+00
   -1.8656718265E+00   -1.8621975699E+00   -1.8587362280E+00   -1.8552877337E+00
   -1.8518520160E+00   -1.8484290041E+00   -1.8450186270E+00   -1.8416208046E+00
   -1.8382354629E+00   -1.8348625480E+00   -1.8315019922E+00   -1.8281537280E+00
   -1.8248176878E+00   -1.8214938039E+00   -1.8181819890E+00   -1.8148821957E+00
   -1.8115943619E+00   -1.8083184231E+00   -1.8050543149E+00   -1.8018019728E+00
   -1.7985613258E+00   -1.7953323018E+00   -1.7921148545E+00   -1.7889089224E+00
   -1.7857144441E+00   -1.7825313582E+00   -1.7793596032E+00   -1.7761991041E+00
   -1.7730498070E+00   -1.7699116611E+00   -1.7667846079E+00   -1.7636685887E+00
   -1.7605635450E+00   -1.7574694182E+00   -1.7543861313E+00   -1.7513136443E+00
   -1.7482519035E+00   -1.7452008531E+00   -1.7421604373E+00   -1.7391306002E+00
   -1.7361112847E+00   -1.7331024174E+00   -1.7301039641E+00   -1.7271158713E+00
   -1.7241380859E+00   -1.7211705546E+00   -1.7182132242E+00   -1.7152660384E+00
   -1.7123289306E+00   -1.7094018668E+00   -1.7064847960E+00   -1.7035776677E+00
   -1.7006804310E+00   -1.6977930351E+00   -1.6949154263E+00   -1.6920475409E+00
   -1.6891893468E+00   -1.6863407954E+00   -1.6835018386E+00   -1.6806724277E+00
   -1.6778525145E+00   -1.6750420490E+00   -1.6722409672E+00   -1.6694492403E+00
   -1.6666668219E+00   -1.6638936661E+00
  </PP_LOCAL>
 <PP_NONLOCAL>
   <PP_BETA.1
       type="real"
       size=" 602"
       columns="4"
       index="1"
       angular_momentum="0"
       cutoff_radius_index=" 262"
       cutoff_radius="    2.6100000000E+00" >
    0.0000000000E+00    3.1176808413E-02    6.2325095775E-02    9.3415968942E-02
    1.2441979474E-01    1.5530584032E-01    1.8604192583E-01    2.1659409344E-01
    2.4692629647E-01    2.7700011235E-01    3.0677448298E-01    3.3620548556E-01
    3.6524613719E-01    3.9384623583E-01    4.2195224025E-01    4.4950719094E-01
    4.7645067415E-01    5.0271883029E-01    5.2824440793E-01    5.5295686432E-01
    5.7678251258E-01    5.9964471588E-01    6.2146412792E-01    6.4215897932E-01
    6.6164540789E-01    6.7983783387E-01    6.9664937244E-01    7.1199229042E-01
    7.2577849409E-01    7.3792005311E-01    7.4832975376E-01    7.5692167857E-01
    7.6361180467E-01    7.6831863206E-01    7.7096380922E-01    7.7147277955E-01
    7.6977542919E-01    7.6580673919E-01    7.5950741430E-01    7.5082452695E-01
    7.3971213342E-01    7.2613186106E-01    7.1005348135E-01    6.9145544831E-01
    6.7032540094E-01    6.4666062475E-01    6.2046846762E-01    5.9176669993E-01
    5.6058382977E-01    5.2695937771E-01    4.9094404044E-01    4.5259980488E-01
    4.1200005718E-01    3.6922954426E-01    3.2438424057E-01    2.7757130305E-01
    2.2890870501E-01    1.7852502985E-01    1.2655900521E-01    7.3159089077E-02
    1.8482903052E-02   -3.7303394747E-02   -9.4025769613E-02   -1.5150308482E-01
   -2.0954798072E-01   -2.6796766668E-01   -3.2656492825E-01   -3.8513923423E-01
   -4.4348765976E-01   -5.0140596909E-01   -5.5868990729E-01   -6.1513639339E-01
   -6.7054459763E-01   -7.2471722676E-01   -7.7746176880E-01   -8.2859161083E-01