<UPF version="2.0.1">
  <PP_INFO>

 Sn_ONCV_PBE_FR-1.1.upf

 This pseudopotential file has been produced using the code
 ONCVPSP  (Optimized Norm-Conservinng Vanderbilt PSeudopotential)
 fully-relativistic version 2.1.1, 03/26/2014 by D. R. Hamann
 The code is available through a link at URL www.mat-simresearch.com.
 Documentation with the package provides a full description of the
 input data below.

 While it is not required under the terms of the GNU GPL, it is
 suggested that you cite D. R. Hamann, Phys. Rev. B 88, 085117 (2013)
 in any publication using these pseudopotentials.

 -----

 This pseudopotential was produced with the SG15 1.0 and/or 1.1
 parameter sets, the Schlipf-Gygi norm-conserving pseudopotential
 library. For details of the construction and testing of the
 pseudopotential please refer to:

 M. Schlipf, F. Gygi, Comp. Phys. Comm. 196, 36 (2015)
 http://dx.doi.org/10.1016/j.cpc.2015.05.011

 The above authors kindly ask that you include this reference in all
 publications associated to this pseudopotential.

 Please note this fully-relativistic version does not employ the
 above self-consistent procedure at the fully-relativistic level.

 -----

 This pseudopotential was produced by Peter Scherpelz for the purpose
 of performing GW calculations with spin-orbit-coupling. Please see
 the publication:

 P. Scherpelz, M. Govoni, I. Hamada, G. Galli; J. Chem. Theory Comput. (2016)
 http://dx.doi.org/10.1021/acs.jctc.6b00114

 If you use these pseudopotentials in your work, we also kindly ask
 that you cite the above publication.

 -----

 This work is licensed under the Creative Commons Attribution-ShareAlike 
 4.0 International License. To view a copy of this license, visit 
 http://creativecommons.org/licenses/by-sa/4.0/ or send a letter to 
 Creative Commons, PO Box 1866, Mountain View, CA 94042, USA.

 The SG15 library is Copyright 2015 The Regents of the University of
 California.  Further modifications of these files are Copyright 2016
 Peter Scherpelz.

    <PP_INPUTFILE>
# ATOM AND REFERENCE CONFIGURATION
# atsym  z    nc    nv    iexc   psfile
  Sn 50.00     8     3     4      upf
#
#   n    l    f        energy (Ha)
    1    0    2.00
    2    0    2.00
    2    1    6.00
    3    0    2.00
    3    1    6.00
    3    2   10.00
    4    0    2.00
    4    1    6.00
    4    2   10.00
    5    0    2.00
    5    1    2.00
#
# PSEUDOPOTENTIAL AND OPTIMIZATION
# lmax
    2
#
#   l,   rc,     ep,   ncon, nbas, qcut
    0    2.78   -0.39    5    8    2.53
    1    2.92   -0.13    5    8    4.91
    2    3.37   -0.93    5    8    6.54
#
# LOCAL POTENTIAL
# lloc, lpopt,  rc(5),   dvloc0
    4    5      1.92       0.00
#
# VANDERBILT-KLEINMAN-BYLANDER PROJECTORs
# l, nproj, debl
    0    2    0.9997
    1    2    0.8484
    2    2    1.3300
#
# MODEL CORE CHARGE
# icmod, fcfact
    0    0.00
#
# LOG DERIVATIVE ANALYSIS
# epsh1, epsh2, depsh
   -5.00    3.00    0.02
#
# OUTPUT GRID
# rlmax, drl
    6.00    0.01
#
# TEST CONFIGURATIONS
# ncnf
    0
# nvcnf
#   n    l    f
    </PP_INPUTFILE>
  </PP_INFO>
  <!--                               -->
  <!-- END OF HUMAN READABLE SECTION -->
  <!--                               -->
    <PP_HEADER
       generated="Generated using ONCVPSP code by D. R. Hamann"
       author="anonymous"
       date="150703"
       comment=""
       element="Sn"
       pseudo_type="NC"
       relativistic="full"
       is_ultrasoft="F"
       is_paw="F"
       is_coulomb="F"
       has_so="T"
       has_wfc="F"
       has_gipaw="F"
       core_correction="F"
       functional="PBE"
       z_valence="   14.00"
       total_psenergy="  -6.01984437980E+01"
       rho_cutoff="   6.01000000000E+00"
       l_max="2"
       l_local="-1"
       mesh_size="   602"
       number_of_wfc="0"
       number_of_proj="10"/>
 <PP_MESH>
   <PP_R type="real"  size=" 602" columns="8">
    0.0000    0.0100    0.0200    0.0300    0.0400    0.0500    0.0600    0.0700
    0.0800    0.0900    0.1000    0.1100    0.1200    0.1300    0.1400    0.1500
    0.1600    0.1700    0.1800    0.1900    0.2000    0.2100    0.2200    0.2300
    0.2400    0.2500    0.2600    0.2700    0.2800    0.2900    0.3000    0.3100
    0.3200    0.3300    0.3400    0.3500    0.3600    0.3700    0.3800    0.3900
    0.4000    0.4100    0.4200    0.4300    0.4400    0.4500    0.4600    0.4700
    0.4800    0.4900    0.5000    0.5100    0.5200    0.5300    0.5400    0.5500
    0.5600    0.5700    0.5800    0.5900    0.6000    0.6100    0.6200    0.6300
    0.6400    0.6500    0.6600    0.6700    0.6800    0.6900    0.7000    0.7100
    0.7200    0.7300    0.7400    0.7500    0.7600    0.7700    0.7800    0.7900
    0.8000    0.8100    0.8200    0.8300    0.8400    0.8500    0.8600    0.8700
    0.8800    0.8900    0.9000    0.9100    0.9200    0.9300    0.9400    0.9500
    0.9600    0.9700    0.9800    0.9900    1.0000    1.0100    1.0200    1.0300
    1.0400    1.0500    1.0600    1.0700    1.0800    1.0900    1.1000    1.1100
    1.1200    1.1300    1.1400    1.1500    1.1600    1.1700    1.1800    1.1900
    1.2000    1.2100    1.2200    1.2300    1.2400    1.2500    1.2600    1.2700
    1.2800    1.2900    1.3000    1.3100    1.3200    1.3300    1.3400    1.3500
    1.3600    1.3700    1.3800    1.3900    1.4000    1.4100    1.4200    1.4300
    1.4400    1.4500    1.4600    1.4700    1.4800    1.4900    1.5000    1.5100
    1.5200    1.5300    1.5400    1.5500    1.5600    1.5700    1.5800    1.5900
    1.6000    1.6100    1.6200    1.6300    1.6400    1.6500    1.6600    1.6700
    1.6800    1.6900    1.7000    1.7100    1.7200    1.7300    1.7400    1.7500
    1.7600    1.7700    1.7800    1.7900    1.8000    1.8100    1.8200    1.8300
    1.8400    1.8500    1.8600    1.8700    1.8800    1.8900    1.9000    1.9100
    1.9200    1.9300    1.9400    1.9500    1.9600    1.9700    1.9800    1.9900
    2.0000    2.0100    2.0200    2.0300    2.0400    2.0500    2.0600    2.0700
    2.0800    2.0900    2.1000    2.1100    2.1200    2.1300    2.1400    2.1500
    2.1600    2.1700    2.1800    2.1900    2.2000    2.2100    2.2200    2.2300
    2.2400    2.2500    2.2600    2.2700    2.2800    2.2900    2.3000    2.3100
    2.3200    2.3300    2.3400    2.3500    2.3600    2.3700    2.3800    2.3900
    2.4000    2.4100    2.4200    2.4300    2.4400    2.4500    2.4600    2.4700
    2.4800    2.4900    2.5000    2.5100    2.5200    2.5300    2.5400    2.5500
    2.5600    2.5700    2.5800    2.5900    2.6000    2.6100    2.6200    2.6300
    2.6400    2.6500    2.6600    2.6700    2.6800    2.6900    2.7000    2.7100
    2.7200    2.7300    2.7400    2.7500    2.7600    2.7700    2.7800    2.7900
    2.8000    2.8100    2.8200    2.8300    2.8400    2.8500    2.8600    2.8700
    2.8800    2.8900    2.9000    2.9100    2.9200    2.9300    2.9400    2.9500
    2.9600    2.9700    2.9800    2.9900    3.0000    3.0100    3.0200    3.0300
    3.0400    3.0500    3.0600    3.0700    3.0800    3.0900    3.1000    3.1100
    3.1200    3.1300    3.1400    3.1500    3.1600    3.1700    3.1800    3.1900
    3.2000    3.2100    3.2200    3.2300    3.2400    3.2500    3.2600    3.2700
    3.2800    3.2900    3.3000    3.3100    3.3200    3.3300    3.3400    3.3500
    3.3600    3.3700    3.3800    3.3900    3.4000    3.4100    3.4200    3.4300
    3.4400    3.4500    3.4600    3.4700    3.4800    3.4900    3.5000    3.5100
    3.5200    3.5300    3.5400    3.5500    3.5600    3.5700    3.5800    3.5900
    3.6000    3.6100    3.6200    3.6300    3.6400    3.6500    3.6600    3.6700
    3.6800    3.6900    3.7000    3.7100    3.7200    3.7300    3.7400    3.7500
    3.7600    3.7700    3.7800    3.7900    3.8000    3.8100    3.8200    3.8300
    3.8400    3.8500    3.8600    3.8700    3.8800    3.8900    3.9000    3.9100
    3.9200    3.9300    3.9400    3.9500    3.9600    3.9700    3.9800    3.9900
    4.0000    4.0100    4.0200    4.0300    4.0400    4.0500    4.0600    4.0700
    4.0800    4.0900    4.1000    4.1100    4.1200    4.1300    4.1400    4.1500
    4.1600    4.1700    4.1800    4.1900    4.2000    4.2100    4.2200    4.2300
    4.2400    4.2500    4.2600    4.2700    4.2800    4.2900    4.3000    4.3100
    4.3200    4.3300    4.3400    4.3500    4.3600    4.3700    4.3800    4.3900
    4.4000    4.4100    4.4200    4.4300    4.4400    4.4500    4.4600    4.4700
    4.4800    4.4900    4.5000    4.5100    4.5200    4.5300    4.5400    4.5500
    4.5600    4.5700    4.5800    4.5900    4.6000    4.6100    4.6200    4.6300
    4.6400    4.6500    4.6600    4.6700    4.6800    4.6900    4.7000    4.7100
    4.7200    4.7300    4.7400    4.7500    4.7600    4.7700    4.7800    4.7900
    4.8000    4.8100    4.8200    4.8300    4.8400    4.8500    4.8600    4.8700
    4.8800    4.8900    4.9000    4.9100    4.9200    4.9300    4.9400    4.9500
    4.9600    4.9700    4.9800    4.9900    5.0000    5.0100    5.0200    5.0300
    5.0400    5.0500    5.0600    5.0700    5.0800    5.0900    5.1000    5.1100
    5.1200    5.1300    5.1400    5.1500    5.1600    5.1700    5.1800    5.1900
    5.2000    5.2100    5.2200    5.2300    5.2400    5.2500    5.2600    5.2700
    5.2800    5.2900    5.3000    5.3100    5.3200    5.3300    5.3400    5.3500
    5.3600    5.3700    5.3800    5.3900    5.4000    5.4100    5.4200    5.4300
    5.4400    5.4500    5.4600    5.4700    5.4800    5.4900    5.5000    5.5100
    5.5200    5.5300    5.5400    5.5500    5.5600    5.5700    5.5800    5.5900
    5.6000    5.6100    5.6200    5.6300    5.6400    5.6500    5.6600    5.6700
    5.6800    5.6900    5.7000    5.7100    5.7200    5.7300    5.7400    5.7500
    5.7600    5.7700    5.7800    5.7900    5.8000    5.8100    5.8200    5.8300
    5.8400    5.8500    5.8600    5.8700    5.8800    5.8900    5.9000    5.9100
    5.9200    5.9300    5.9400    5.9500    5.9600    5.9700    5.9800    5.9900
    6.0000    6.0100
   </PP_R>
   <PP_RAB type="real"  size=" 602" columns="8">
    0.0100    0.0100    0.0100    0.0100    0.0100    0.0100    0.0100    0.0100
    0.0100    0.0100    0.0100    0.0100    0.0100    0.0100    0.0100    0.0100
    0.0100    0.0100    0.0100    0.0100    0.0100    0.0100    0.0100    0.0100
    0.0100    0.0100    0.0100    0.0100    0.0100    0.0100    0.0100    0.0100
    0.0100    0.0100    0.0100    0.0100    0.0100    0.0100    0.0100    0.0100
    0.0100    0.0100    0.0100    0.0100    0.0100    0.0100    0.0100    0.0100
    0.0100    0.0100    0.0100    0.0100    0.0100    0.0100    0.0100    0.0100
    0.0100    0.0100    0.0100    0.0100    0.0100    0.0100    0.0100    0.0100
    0.0100    0.0100    0.0100    0.0100    0.0100    0.0100    0.0100    0.0100
    0.0100    0.0100    0.0100    0.0100    0.0100    0.0100    0.0100    0.0100
    0.0100    0.0100    0.0100    0.0100    0.0100    0.0100    0.0100    0.0100
    0.0100    0.0100    0.0100    0.0100    0.0100    0.0100    0.0100    0.0100
    0.0100    0.0100    0.0100    0.0100    0.0100    0.0100    0.0100    0.0100
    0.0100    0.0100    0.0100    0.0100    0.0100    0.0100    0.0100    0.0100
    0.0100    0.0100    0.0100    0.0100    0.0100    0.0100    0.0100    0.0100
    0.0100    0.0100    0.0100    0.0100    0.0100    0.0100    0.0100    0.0100
    0.0100    0.0100    0.0100    0.0100    0.0100    0.0100    0.0100    0.0100
    0.0100    0.0100    0.0100    0.0100    0.0100    0.0100    0.0100    0.0100
    0.0100    0.0100    0.0100    0.0100    0.0100    0.0100    0.0100    0.0100
    0.0100    0.0100    0.0100    0.0100    0.0100    0.0100    0.0100    0.0100
    0.0100    0.0100    0.0100    0.0100    0.0100    0.0100    0.0100    0.0100
    0.0100    0.0100    0.0100    0.0100    0.0100    0.0100    0.0100    0.0100
    0.0100    0.0100    0.0100    0.0100    0.0100    0.0100    0.0100    0.0100
    0.0100    0.0100    0.0100    0.0100    0.0100    0.0100    0.0100    0.0100
    0.0100    0.0100    0.0100    0.0100    0.0100    0.0100    0.0100    0.0100
    0.0100    0.0100    0.0100    0.0100    0.0100    0.0100    0.0100    0.0100
    0.0100    0.0100    0.0100    0.0100    0.0100    0.0100    0.0100    0.0100
    0.0100    0.0100    0.0100    0.0100    0.0100    0.0100    0.0100    0.0100
    0.0100    0.0100    0.0100    0.0100    0.0100    0.0100    0.0100    0.0100
    0.0100    0.0100    0.0100    0.0100    0.0100    0.0100    0.0100    0.0100
    0.0100    0.0100    0.0100    0.0100    0.0100    0.0100    0.0100    0.0100
    0.0100    0.0100    0.0100    0.0100    0.0100    0.0100    0.0100    0.0100
    0.0100    0.0100    0.0100    0.0100    0.0100    0.0100    0.0100    0.0100
    0.0100    0.0100    0.0100    0.0100    0.0100    0.0100    0.0100    0.0100
    0.0100    0.0100    0.0100    0.0100    0.0100    0.0100    0.0100    0.0100
    0.0100    0.0100    0.0100    0.0100    0.0100    0.0100    0.0100    0.0100
    0.0100    0.0100    0.0100    0.0100    0.0100    0.0100    0.0100    0.0100
    0.0100    0.0100    0.0100    0.0100    0.0100    0.0100    0.0100    0.0100
    0.0100    0.0100    0.0100    0.0100    0.0100    0.0100    0.0100    0.0100
    0.0100    0.0100    0.0100    0.0100    0.0100    0.0100    0.0100    0.0100
    0.0100    0.0100    0.0100    0.0100    0.0100    0.0100    0.0100    0.0100
    0.0100    0.0100    0.0100    0.0100    0.0100    0.0100    0.0100    0.0100
    0.0100    0.0100    0.0100    0.0100    0.0100    0.0100    0.0100    0.0100
    0.0100    0.0100    0.0100    0.0100    0.0100    0.0100    0.0100    0.0100
    0.0100    0.0100    0.0100    0.0100    0.0100    0.0100    0.0100    0.0100
    0.0100    0.0100    0.0100    0.0100    0.0100    0.0100    0.0100    0.0100
    0.0100    0.0100    0.0100    0.0100    0.0100    0.0100    0.0100    0.0100
    0.0100    0.0100    0.0100    0.0100    0.0100    0.0100    0.0100    0.0100
    0.0100    0.0100    0.0100    0.0100    0.0100    0.0100    0.0100    0.0100
    0.0100    0.0100    0.0100    0.0100    0.0100    0.0100    0.0100    0.0100
    0.0100    0.0100    0.0100    0.0100    0.0100    0.0100    0.0100    0.0100
    0.0100    0.0100    0.0100    0.0100    0.0100    0.0100    0.0100    0.0100
    0.0100    0.0100    0.0100    0.0100    0.0100    0.0100    0.0100    0.0100
    0.0100    0.0100    0.0100    0.0100    0.0100    0.0100    0.0100    0.0100
    0.0100    0.0100    0.0100    0.0100    0.0100    0.0100    0.0100    0.0100
    0.0100    0.0100    0.0100    0.0100    0.0100    0.0100    0.0100    0.0100
    0.0100    0.0100    0.0100    0.0100    0.0100    0.0100    0.0100    0.0100
    0.0100    0.0100    0.0100    0.0100    0.0100    0.0100    0.0100    0.0100
    0.0100    0.0100    0.0100    0.0100    0.0100    0.0100    0.0100    0.0100
    0.0100    0.0100    0.0100    0.0100    0.0100    0.0100    0.0100    0.0100
    0.0100    0.0100    0.0100    0.0100    0.0100    0.0100    0.0100    0.0100
    0.0100    0.0100    0.0100    0.0100    0.0100    0.0100    0.0100    0.0100
    0.0100    0.0100    0.0100    0.0100    0.0100    0.0100    0.0100    0.0100
    0.0100    0.0100    0.0100    0.0100    0.0100    0.0100    0.0100    0.0100
    0.0100    0.0100    0.0100    0.0100    0.0100    0.0100    0.0100    0.0100
    0.0100    0.0100    0.0100    0.0100    0.0100    0.0100    0.0100    0.0100
    0.0100    0.0100    0.0100    0.0100    0.0100    0.0100    0.0100    0.0100
    0.0100    0.0100    0.0100    0.0100    0.0100    0.0100    0.0100    0.0100
    0.0100    0.0100    0.0100    0.0100    0.0100    0.0100    0.0100    0.0100
    0.0100    0.0100    0.0100    0.0100    0.0100    0.0100    0.0100    0.0100
    0.0100    0.0100    0.0100    0.0100    0.0100    0.0100    0.0100    0.0100
    0.0100    0.0100    0.0100    0.0100    0.0100    0.0100    0.0100    0.0100
    0.0100    0.0100    0.0100    0.0100    0.0100    0.0100    0.0100    0.0100
    0.0100    0.0100    0.0100    0.0100    0.0100    0.0100    0.0100    0.0100
    0.0100    0.0100    0.0100    0.0100    0.0100    0.0100    0.0100    0.0100
    0.0100    0.0100
   </PP_RAB>
 </PP_MESH>
  <PP_LOCAL type="real"  size=" 602" columns="4">
   -2.9801370326E+01   -2.9816423230E+01   -2.9825762583E+01   -2.9852971689E+01
   -2.9921633851E+01   -3.0072915030E+01   -3.0356155622E+01   -3.0780871288E+01
   -3.1233602912E+01   -3.1468832474E+01   -3.1301306364E+01   -3.0819634837E+01
   -3.0289350482E+01   -2.9895050864E+01   -2.9665517968E+01   -2.9552226482E+01
   -2.9501095738E+01   -2.9476407288E+01   -2.9459636240E+01   -2.9442797319E+01
   -2.9423207182E+01   -2.9400496965E+01   -2.9375157265E+01   -2.9347907296E+01
   -2.9319451804E+01   -2.9290403355E+01   -2.9261267695E+01   -2.9232447950E+01
   -2.9204251526E+01   -2.9176894072E+01   -2.9150499961E+01   -2.9125100299E+01
   -2.9100630020E+01   -2.9076925118E+01   -2.9053722450E+01   -2.9030661919E+01
   -2.9007293156E+01   -2.8983086157E+01   -2.8957447187E+01   -2.8929738547E+01
   -2.8899302226E+01   -2.8865486254E+01   -2.8827672106E+01   -2.8785301745E+01
   -2.8737902563E+01   -2.8685108593E+01   -2.8626676560E+01   -2.8562495409E+01
   -2.8492590082E+01   -2.8417117286E+01   -2.8336354655E+01   -2.8250684220E+01
   -2.8160573397E+01   -2.8066549764E+01   -2.7969177243E+01   -2.7869032019E+01
   -2.7766680933E+01   -2.7662661719E+01   -2.7557470672E+01   -2.7451549426E+01
   -2.7345282909E+01   -2.7238993876E+01   -2.7132946791E+01   -2.7027351356E+01
   -2.6922366176E+01   -2.6818107383E+01   -2.6714654544E+01   -2.6612055955E+01
   -2.6510336022E+01   -2.6409499932E+01   -2.6309537953E+01   -2.6210428750E+01
   -2.6112142597E+01   -2.6014643279E+01   -2.5917889575E+01   -2.5821836274E+01
   -2.5726434749E+01   -2.5631633211E+01   -2.5537376831E+01   -2.5443607607E+01
   -2.5350264183E+01   -2.5257281618E+01   -2.5164591189E+01   -2.5072120251E+01
   -2.4979792202E+01   -2.4887526593E+01   -2.4795239389E+01   -2.4702843430E+01
   -2.4610249079E+01   -2.4517365059E+01   -2.4424099486E+01   -2.4330361058E+01
   -2.4236060373E+01   -2.4141111338E+01   -2.4045432553E+01   -2.3948948708E+01
   -2.3851592335E+01   -2.3753304679E+01   -2.3654036867E+01   -2.3553750744E+01
   -2.3452419446E+01   -2.3350027665E+01   -2.3246571175E+01   -2.3142058516E+01
   -2.3036508534E+01   -2.2929950235E+01   -2.2822421864E+01   -2.2713969450E+01
   -2.2604647148E+01   -2.2494514571E+01   -2.2383635779E+01   -2.2272078202E+01
   -2.2159911866E+01   -2.2047208035E+01   -2.1934038071E+01   -2.1820473021E+01
   -2.1706582800E+01   -2.1592435177E+01   -2.1478095834E+01   -2.1363628509E+01
   -2.1249093140E+01   -2.1134547010E+01   -2.1020044958E+01   -2.0905638279E+01
   -2.0791374991E+01   -2.0677300979E+01   -2.0563459099E+01   -2.0449888995E+01
   -2.0336628704E+01   -2.0223713640E+01   -2.0111176574E+01   -1.9999049174E+01
   -1.9887360665E+01   -1.9776138459E+01   -1.9665409217E+01   -1.9555197160E+01
   -1.9445525646E+01   -1.9336417120E+01   -1.9227891998E+01   -1.9119970452E+01
   -1.9012671112E+01   -1.8906011574E+01   -1.8800009100E+01   -1.8694679036E+01
   -1.8590036739E+01   -1.8486096072E+01   -1.8382870163E+01   -1.8280371597E+01
   -1.8178611277E+01   -1.8077600385E+01   -1.7977347894E+01   -1.7877862991E+01
   -1.7779153232E+01   -1.7681225593E+01   -1.7584086209E+01   -1.7487739832E+01
   -1.7392191141E+01   -1.7297442708E+01   -1.7203497723E+01   -1.7110356720E+01
   -1.7018021200E+01   -1.6926490011E+01   -1.6835762815E+01   -1.6745837014E+01
   -1.6656710535E+01   -1.6568379439E+01   -1.6480840116E+01   -1.6394087423E+01
   -1.6308116452E+01   -1.6222921029E+01   -1.6138495200E+01   -1.6054831970E+01
   -1.5971924587E+01   -1.5889765473E+01   -1.5808347305E+01   -1.5727662175E+01
   -1.5647702382E+01   -1.5568459922E+01   -1.5489926879E+01   -1.5412095337E+01
   -1.5334957317E+01   -1.5258505060E+01   -1.5182730690E+01   -1.5107626565E+01
   -1.5033185007E+01   -1.4959398421E+01   -1.4886259282E+01   -1.4813760008E+01
   -1.4741892993E+01   -1.4670650697E+01   -1.4600025043E+01   -1.4530008453E+01
   -1.4460592275E+01   -1.4391767976E+01   -1.4323527298E+01   -1.4255861827E+01
   -1.4188763381E+01   -1.4122225013E+01   -1.4056238902E+01   -1.3990798601E+01
   -1.3925897147E+01   -1.3861527867E+01   -1.3797684213E+01   -1.3734359563E+01
   -1.3671547169E+01   -1.3609240516E+01   -1.3547432542E+01   -1.3486116356E+01
   -1.3425284944E+01   -1.3364930752E+01   -1.3305046721E+01   -1.3245624984E+01
   -1.3186657906E+01   -1.3128137785E+01   -1.3070056622E+01   -1.3012406513E+01
   -1.2955179638E+01   -1.2898368066E+01   -1.2841963893E+01   -1.2785959876E+01
   -1.2730348049E+01   -1.2675121567E+01   -1.2620273805E+01   -1.2565797062E+01
   -1.2511686366E+01   -1.2457935327E+01   -1.2404538146E+01   -1.2351490895E+01
   -1.2298787870E+01   -1.2246425622E+01   -1.2194401131E+01   -1.2142709630E+01
   -1.2091349915E+01   -1.2040319514E+01   -1.1989615551E+01   -1.1939237773E+01
   -1.1889184512E+01   -1.1839454615E+01   -1.1790048267E+01   -1.1740964633E+01
   -1.1692203662E+01   -1.1643765766E+01   -1.1595650809E+01   -1.1547859211E+01
   -1.1500391449E+01   -1.1453247871E+01   -1.1406428877E+01   -1.1359934864E+01
   -1.1313766418E+01   -1.1267923614E+01   -1.1222406638E+01   -1.1177216082E+01
   -1.1132351559E+01   -1.1087812942E+01   -1.1043600627E+01   -1.0999713758E+01
   -1.0956151818E+01   -1.0912914858E+01   -1.0870001622E+01   -1.0827411150E+01
   -1.0785143057E+01   -1.0743195778E+01   -1.0701567888E+01   -1.0660258521E+01
   -1.0619265889E+01   -1.0578588102E+01   -1.0538223799E+01   -1.0498171042E+01
   -1.0458427492E+01   -1.0418991292E+01   -1.0379860419E+01   -1.0341032100E+01
   -1.0302504003E+01   -1.0264274053E+01   -1.0226339084E+01   -1.0188696375E+01
   -1.0151343575E+01   -1.0114277431E+01   -1.0077494906E+01   -1.0040993138E+01
   -1.0004769060E+01   -9.9688194953E+00   -9.9331413474E+00   -9.8977315166E+00
   -9.8625869460E+00   -9.8277045593E+00   -9.7930812446E+00   -9.7587139745E+00
   -9.7245997031E+00   -9.6907353107E+00   -9.6571177553E+00   -9.6237441557E+00
   -9.5906115409E+00   -9.5577167181E+00   -9.5250570444E+00   -9.4926296812E+00
   -9.4604316403E+00   -9.4284601151E+00   -9.3967125720E+00   -9.3651863128E+00
   -9.3338783931E+00   -9.3027864568E+00   -9.2719079674E+00   -9.2412402580E+00
   -9.2107807030E+00   -9.1805271054E+00   -9.1504770541E+00   -9.1206279110E+00
   -9.0909774898E+00   -9.0615236376E+00   -9.0322640919E+00   -9.0031962823E+00
   -8.9743184193E+00   -8.9456283970E+00   -8.9171240084E+00   -8.8888030547E+00
   -8.8606638129E+00   -8.8327043252E+00   -8.8049224581E+00   -8.7773163455E+00
   -8.7498843275E+00   -8.7226245877E+00   -8.6955350838E+00   -8.6686142281E+00
   -8.6418604275E+00   -8.6152719983E+00   -8.5888470042E+00   -8.5625840762E+00
   -8.5364816948E+00   -8.5105382987E+00   -8.4847520674E+00   -8.4591217935E+00
   -8.4336460377E+00   -8.4083233464E+00   -8.3831520333E+00   -8.3581309870E+00
   -8.3332588564E+00   -8.3085342863E+00   -8.2839557284E+00   -8.2595221140E+00
   -8.2352321732E+00   -8.2110846361E+00   -8.1870780748E+00   -8.1632114325E+00
   -8.1394835057E+00   -8.1158930867E+00   -8.0924388377E+00   -8.0691197099E+00
   -8.0459345685E+00   -8.0228822601E+00   -7.9999615201E+00   -7.9771713056E+00
   -7.9545105570E+00   -7.9319781748E+00   -7.9095729776E+00   -7.8872939074E+00
   -7.8651399834E+00   -7.8431101571E+00   -7.8212033349E+00   -7.7994184288E+00
   -7.7777545377E+00   -7.7562106619E+00   -7.7347857992E+00   -7.7134788177E+00
   -7.6922888982E+00   -7.6712150870E+00   -7.6502564307E+00   -7.6294118833E+00
   -7.6086805668E+00   -7.5880616177E+00   -7.5675541269E+00   -7.5471571473E+00
   -7.5268697215E+00   -7.5066910791E+00   -7.4866203531E+00   -7.4666566764E+00
   -7.4467990744E+00   -7.4270467968E+00   -7.4073990401E+00   -7.3878549773E+00
   -7.3684137393E+00   -7.3490744668E+00   -7.3298364580E+00   -7.3106989244E+00
   -7.2916610776E+00   -7.2727220330E+00   -7.2538810961E+00   -7.2351375448E+00
   -7.2164906272E+00   -7.1979395716E+00   -7.1794835491E+00   -7.1611219446E+00
   -7.1428540411E+00   -7.1246791219E+00   -7.1065964103E+00   -7.0886052035E+00
   -7.0707048793E+00   -7.0528947541E+00   -7.0351741442E+00   -7.0175422764E+00
   -6.9999985532E+00   -6.9825423504E+00   -6.9651730160E+00   -6.9478898983E+00
   -6.9306922344E+00   -6.9135795120E+00   -6.8965511105E+00   -6.8796064087E+00
   -6.8627447671E+00   -6.8459654928E+00   -6.8292680863E+00   -6.8126519551E+00
   -6.7961165065E+00   -6.7796611191E+00   -6.7632851554E+00   -6.7469881309E+00
   -6.7307694804E+00   -6.7146286390E+00   -6.6985650082E+00   -6.6825779903E+00
   -6.6666671203E+00   -6.6508318593E+00   -6.6350716687E+00   -6.6193859784E+00
   -6.6037742146E+00   -6.5882359370E+00   -6.5727706318E+00   -6.5573777854E+00
   -6.5420568611E+00   -6.5268072945E+00   -6.5116286746E+00   -6.4965205114E+00
   -6.4814823154E+00   -6.4665135875E+00   -6.4516137596E+00   -6.4367824539E+00
   -6.4220192033E+00   -6.4073235411E+00   -6.3926950002E+00   -6.3781330274E+00
   -6.3636372507E+00   -6.3492072351E+00   -6.3348425355E+00   -6.3205427067E+00
   -6.3063072426E+00   -6.2921357367E+00   -6.2780277995E+00   -6.2639830064E+00
   -6.2500009330E+00   -6.2360811248E+00   -6.2222231299E+00   -6.2084266068E+00
   -6.1946911509E+00   -6.1810163573E+00   -6.1674018213E+00   -6.1538470547E+00
   -6.1403517473E+00   -6.1269155195E+00   -6.1135379853E+00   -6.1002187590E+00
   -6.0869574113E+00   -6.0737535620E+00   -6.0606068893E+00   -6.0475170251E+00
   -6.0344836016E+00   -6.0215062510E+00   -6.0085845224E+00   -5.9957181444E+00
   -5.9829067690E+00   -5.9701500453E+00   -5.9574476226E+00   -5.9447991168E+00
   -5.9322041647E+00   -5.9196624838E+00   -5.9071737395E+00   -5.8947375974E+00
   -5.8823537231E+00   -5.8700217209E+00   -5.8577413074E+00   -5.8455121852E+00
   -5.8333340355E+00   -5.8212065395E+00   -5.8091293761E+00   -5.7971021515E+00
   -5.7851246390E+00   -5.7731965346E+00   -5.7613175342E+00   -5.7494873340E+00
   -5.7377056104E+00   -5.7259720227E+00   -5.7142863405E+00   -5.7026482739E+00
   -5.6910575331E+00   -5.6795138282E+00   -5.6680168391E+00   -5.6565662643E+00
   -5.6451618744E+00   -5.6338033932E+00   -5.6224905443E+00   -5.6112230513E+00
   -5.6000006026E+00   -5.5888229227E+00   -5.5776897885E+00   -5.5666009364E+00
   -5.5555561031E+00   -5.5445550250E+00   -5.5335974037E+00   -5.5226829774E+00
   -5.5118115339E+00   -5.5009828219E+00   -5.4901965903E+00   -5.4794525879E+00
   -5.4687505340E+00   -5.4580901689E+00   -5.4474712956E+00   -5.4368936748E+00
   -5.4263570668E+00   -5.4158612323E+00   -5.4054059128E+00   -5.3949908394E+00
   -5.3846158349E+00   -5.3742806711E+00   -5.3639851195E+00   -5.3537289519E+00
   -5.3435119361E+00   -5.3333337842E+00   -5.3231943423E+00   -5.3130933928E+00
   -5.3030307178E+00   -5.2930060999E+00   -5.2830193212E+00   -5.2730701130E+00
   -5.2631583006E+00   -5.2532836921E+00   -5.2434460800E+00   -5.2336452568E+00
   -5.2238810150E+00   -5.2141531204E+00   -5.2044613568E+00   -5.1948055653E+00
   -5.1851855481E+00   -5.1756011072E+00   -5.1660520448E+00   -5.1565381631E+00
   -5.1470592032E+00   -5.1376150347E+00   -5.1282054711E+00   -5.1188303238E+00
   -5.1094894042E+00   -5.1001825236E+00   -5.0909094652E+00   -5.0816700379E+00
   -5.0724640962E+00   -5.0632914602E+00   -5.0541519501E+00   -5.0450453860E+00
   -5.0359715882E+00   -5.0269303249E+00   -5.0179214661E+00   -5.0089448493E+00
   -5.0000003029E+00   -4.9910876555E+00   -4.9822067357E+00   -4.9733573611E+00
   -4.9645393239E+00   -4.9557525090E+00   -4.9469967530E+00   -4.9382718924E+00
   -4.9295777636E+00   -4.9209142032E+00   -4.9122810228E+00   -4.9036780536E+00
   -4.8951051730E+00   -4.8865622251E+00   -4.8780490540E+00   -4.8695655040E+00
   -4.8611114192E+00   -4.8526866099E+00   -4.8442909349E+00   -4.8359242689E+00
   -4.8275864631E+00   -4.8192773690E+00   -4.8109968381E+00   -4.8027447216E+00
   -4.7945208336E+00   -4.7863250493E+00   -4.7781572450E+00   -4.7700172792E+00
   -4.7619050101E+00   -4.7538202961E+00   -4.7457629954E+00   -4.7377329299E+00
   -4.7297299810E+00   -4.7217540313E+00   -4.7138049457E+00   -4.7058825892E+00
   -4.6979868266E+00   -4.6901175230E+00   -4.6822745118E+00   -4.6744576712E+00
   -4.6666668942E+00   -4.6589020518E+00
  </PP_LOCAL>
 <PP_NONLOCAL>
   <PP_BETA.1
       type="real"
       size=" 602"
       columns="4"
       index="1"
       angular_momentum="0"
       cutoff_radius_index=" 340"
       cutoff_radius="    3.3900000000E+00" >
    0.0000000000E+00   -1.8171461249E-02   -3.6273283704E-02   -5.4236064636E-02
   -7.1990872735E-02   -8.9469482060E-02   -1.0660460386E-01   -1.2333011562E-01
   -1.3958128653E-01   -1.5529499890E-01   -1.7040996459E-01   -1.8486693604E-01
   -1.9860891110E-01   -2.1158133114E-01   -2.2373227170E-01   -2.3501262526E-01
   -2.4537627544E-01   -2.5478026213E-01   -2.6318493700E-01   -2.7055410900E-01
   -2.7685517909E-01   -2.8205926439E-01   -2.8614131049E-01   -2.8908019219E-01
   -2.9085880200E-01   -2.9146412676E-01   -2.9088731027E-01   -2.8912370465E-01
   -2.8617290720E-01   -2.8203878454E-01   -2.7672948325E-01   -2.7025742688E-01
   -2.6263929935E-01   -2.5389601525E-01   -2.4405267555E-01   -2.3313851088E-01
   -2.2118681088E-01   -2.0823484015E-01   -1.9432374190E-01   -1.7949842853E-01
   -1.6380745828E-01   -1.4730290208E-01   -1.3004019694E-01   -1.1207798826E-01
   -9.3477961033E-02   -7.4304660415E-02   -5.4625302316E-02   -3.4509577464E-02
   -1.4029437654E-02    6.7411195421E-03    2.7726272409E-02    4.8848594614E-02
    7.0029324071E-02    9.1188580713E-02    1.1224560256E-01    1.3311905682E-01
    1.5372720157E-01    1.7398826283E-01    1.9382055698E-01    2.1314290723E-01
    2.3187474078E-01    2.4993650464E-01    2.6724982101E-01    2.8373774709E-01
    2.9932513506E-01    3.1393875470E-01    3.2750755697E-01    3.3996303955E-01