<UPF version="2.0.1">
  <PP_INFO>

 Tc_ONCV_PBE_FR-1.0.upf

 This pseudopotential file has been produced using the code
 ONCVPSP  (Optimized Norm-Conservinng Vanderbilt PSeudopotential)
 fully-relativistic version 2.1.1, 03/26/2014 by D. R. Hamann
 The code is available through a link at URL www.mat-simresearch.com.
 Documentation with the package provides a full description of the
 input data below.

 While it is not required under the terms of the GNU GPL, it is
 suggested that you cite D. R. Hamann, Phys. Rev. B 88, 085117 (2013)
 in any publication using these pseudopotentials.

 -----

 This pseudopotential was produced with the SG15 1.0 and/or 1.1
 parameter sets, the Schlipf-Gygi norm-conserving pseudopotential
 library. For details of the construction and testing of the
 pseudopotential please refer to:

 M. Schlipf, F. Gygi, Comp. Phys. Comm. 196, 36 (2015)
 http://dx.doi.org/10.1016/j.cpc.2015.05.011

 The above authors kindly ask that you include this reference in all
 publications associated to this pseudopotential.

 Please note this fully-relativistic version does not employ the
 above self-consistent procedure at the fully-relativistic level.

 -----

 This pseudopotential was produced by Peter Scherpelz for the purpose
 of performing GW calculations with spin-orbit-coupling. Please see
 the publication:

 P. Scherpelz, M. Govoni, I. Hamada, G. Galli; J. Chem. Theory Comput. (2016)
 http://dx.doi.org/10.1021/acs.jctc.6b00114

 If you use these pseudopotentials in your work, we also kindly ask
 that you cite the above publication.

 -----

 This work is licensed under the Creative Commons Attribution-ShareAlike 
 4.0 International License. To view a copy of this license, visit 
 http://creativecommons.org/licenses/by-sa/4.0/ or send a letter to 
 Creative Commons, PO Box 1866, Mountain View, CA 94042, USA.

 The SG15 library is Copyright 2015 The Regents of the University of
 California.  Further modifications of these files are Copyright 2016
 Peter Scherpelz.

    <PP_INPUTFILE>
# ATOM AND REFERENCE CONFIGURATION
# atsym  z    nc    nv    iexc   psfile
  Tc 43.00     6     4     4      upf
#
#   n    l    f        energy (Ha)
    1    0    2.00
    2    0    2.00
    2    1    6.00
    3    0    2.00
    3    1    6.00
    3    2   10.00
    4    0    2.00
    4    1    6.00
    5    0    2.00
    4    2    5.00
#
# PSEUDOPOTENTIAL AND OPTIMIZATION
# lmax
    2
#
#   l,   rc,     ep,   ncon, nbas, qcut
    0    2.43   -2.70    5    8    5.84
    1    2.58   -1.63    5    8    5.62
    2    2.68   -0.24    5    8    5.55
#
# LOCAL POTENTIAL
# lloc, lpopt,  rc(5),   dvloc0
    4    5      1.56       0.00
#
# VANDERBILT-KLEINMAN-BYLANDER PROJECTORs
# l, nproj, debl
    0    2    2.5099
    1    2    2.1013
    2    2    1.4547
#
# MODEL CORE CHARGE
# icmod, fcfact
    0    0.00
#
# LOG DERIVATIVE ANALYSIS
# epsh1, epsh2, depsh
   -5.00    3.00    0.02
#
# OUTPUT GRID
# rlmax, drl
    6.00    0.01
#
# TEST CONFIGURATIONS
# ncnf
    0
# nvcnf
#   n    l    f
    </PP_INPUTFILE>
  </PP_INFO>
  <!--                               -->
  <!-- END OF HUMAN READABLE SECTION -->
  <!--                               -->
    <PP_HEADER
       generated="Generated using ONCVPSP code by D. R. Hamann"
       author="anonymous"
       date="150703"
       comment=""
       element="Tc"
       pseudo_type="NC"
       relativistic="full"
       is_ultrasoft="F"
       is_paw="F"
       is_coulomb="F"
       has_so="T"
       has_wfc="F"
       has_gipaw="F"
       core_correction="F"
       functional="PBE"
       z_valence="   15.00"
       total_psenergy="  -8.02057149981E+01"
       rho_cutoff="   6.01000000000E+00"
       l_max="2"
       l_local="-1"
       mesh_size="   602"
       number_of_wfc="0"
       number_of_proj="10"/>
 <PP_MESH>
   <PP_R type="real"  size=" 602" columns="8">
    0.0000    0.0100    0.0200    0.0300    0.0400    0.0500    0.0600    0.0700
    0.0800    0.0900    0.1000    0.1100    0.1200    0.1300    0.1400    0.1500
    0.1600    0.1700    0.1800    0.1900    0.2000    0.2100    0.2200    0.2300
    0.2400    0.2500    0.2600    0.2700    0.2800    0.2900    0.3000    0.3100
    0.3200    0.3300    0.3400    0.3500    0.3600    0.3700    0.3800    0.3900
    0.4000    0.4100    0.4200    0.4300    0.4400    0.4500    0.4600    0.4700
    0.4800    0.4900    0.5000    0.5100    0.5200    0.5300    0.5400    0.5500
    0.5600    0.5700    0.5800    0.5900    0.6000    0.6100    0.6200    0.6300
    0.6400    0.6500    0.6600    0.6700    0.6800    0.6900    0.7000    0.7100
    0.7200    0.7300    0.7400    0.7500    0.7600    0.7700    0.7800    0.7900
    0.8000    0.8100    0.8200    0.8300    0.8400    0.8500    0.8600    0.8700
    0.8800    0.8900    0.9000    0.9100    0.9200    0.9300    0.9400    0.9500
    0.9600    0.9700    0.9800    0.9900    1.0000    1.0100    1.0200    1.0300
    1.0400    1.0500    1.0600    1.0700    1.0800    1.0900    1.1000    1.1100
    1.1200    1.1300    1.1400    1.1500    1.1600    1.1700    1.1800    1.1900
    1.2000    1.2100    1.2200    1.2300    1.2400    1.2500    1.2600    1.2700
    1.2800    1.2900    1.3000    1.3100    1.3200    1.3300    1.3400    1.3500
    1.3600    1.3700    1.3800    1.3900    1.4000    1.4100    1.4200    1.4300
    1.4400    1.4500    1.4600    1.4700    1.4800    1.4900    1.5000    1.5100
    1.5200    1.5300    1.5400    1.5500    1.5600    1.5700    1.5800    1.5900
    1.6000    1.6100    1.6200    1.6300    1.6400    1.6500    1.6600    1.6700
    1.6800    1.6900    1.7000    1.7100    1.7200    1.7300    1.7400    1.7500
    1.7600    1.7700    1.7800    1.7900    1.8000    1.8100    1.8200    1.8300
    1.8400    1.8500    1.8600    1.8700    1.8800    1.8900    1.9000    1.9100
    1.9200    1.9300    1.9400    1.9500    1.9600    1.9700    1.9800    1.9900
    2.0000    2.0100    2.0200    2.0300    2.0400    2.0500    2.0600    2.0700
    2.0800    2.0900    2.1000    2.1100    2.1200    2.1300    2.1400    2.1500
    2.1600    2.1700    2.1800    2.1900    2.2000    2.2100    2.2200    2.2300
    2.2400    2.2500    2.2600    2.2700    2.2800    2.2900    2.3000    2.3100
    2.3200    2.3300    2.3400    2.3500    2.3600    2.3700    2.3800    2.3900
    2.4000    2.4100    2.4200    2.4300    2.4400    2.4500    2.4600    2.4700
    2.4800    2.4900    2.5000    2.5100    2.5200    2.5300    2.5400    2.5500
    2.5600    2.5700    2.5800    2.5900    2.6000    2.6100    2.6200    2.6300
    2.6400    2.6500    2.6600    2.6700    2.6800    2.6900    2.7000    2.7100
    2.7200    2.7300    2.7400    2.7500    2.7600    2.7700    2.7800    2.7900
    2.8000    2.8100    2.8200    2.8300    2.8400    2.8500    2.8600    2.8700
    2.8800    2.8900    2.9000    2.9100    2.9200    2.9300    2.9400    2.9500
    2.9600    2.9700    2.9800    2.9900    3.0000    3.0100    3.0200    3.0300
    3.0400    3.0500    3.0600    3.0700    3.0800    3.0900    3.1000    3.1100
    3.1200    3.1300    3.1400    3.1500    3.1600    3.1700    3.1800    3.1900
    3.2000    3.2100    3.2200    3.2300    3.2400    3.2500    3.2600    3.2700
    3.2800    3.2900    3.3000    3.3100    3.3200    3.3300    3.3400    3.3500
    3.3600    3.3700    3.3800    3.3900    3.4000    3.4100    3.4200    3.4300
    3.4400    3.4500    3.4600    3.4700    3.4800    3.4900    3.5000    3.5100
    3.5200    3.5300    3.5400    3.5500    3.5600    3.5700    3.5800    3.5900
    3.6000    3.6100    3.6200    3.6300    3.6400    3.6500    3.6600    3.6700
    3.6800    3.6900    3.7000    3.7100    3.7200    3.7300    3.7400    3.7500
    3.7600    3.7700    3.7800    3.7900    3.8000    3.8100    3.8200    3.8300
    3.8400    3.8500    3.8600    3.8700    3.8800    3.8900    3.9000    3.9100
    3.9200    3.9300    3.9400    3.9500    3.9600    3.9700    3.9800    3.9900
    4.0000    4.0100    4.0200    4.0300    4.0400    4.0500    4.0600    4.0700
    4.0800    4.0900    4.1000    4.1100    4.1200    4.1300    4.1400    4.1500
    4.1600    4.1700    4.1800    4.1900    4.2000    4.2100    4.2200    4.2300
    4.2400    4.2500    4.2600    4.2700    4.2800    4.2900    4.3000    4.3100
    4.3200    4.3300    4.3400    4.3500    4.3600    4.3700    4.3800    4.3900
    4.4000    4.4100    4.4200    4.4300    4.4400    4.4500    4.4600    4.4700
    4.4800    4.4900    4.5000    4.5100    4.5200    4.5300    4.5400    4.5500
    4.5600    4.5700    4.5800    4.5900    4.6000    4.6100    4.6200    4.6300
    4.6400    4.6500    4.6600    4.6700    4.6800    4.6900    4.7000    4.7100
    4.7200    4.7300    4.7400    4.7500    4.7600    4.7700    4.7800    4.7900
    4.8000    4.8100    4.8200    4.8300    4.8400    4.8500    4.8600    4.8700
    4.8800    4.8900    4.9000    4.9100    4.9200    4.9300    4.9400    4.9500
    4.9600    4.9700    4.9800    4.9900    5.0000    5.0100    5.0200    5.0300
    5.0400    5.0500    5.0600    5.0700    5.0800    5.0900    5.1000    5.1100
    5.1200    5.1300    5.1400    5.1500    5.1600    5.1700    5.1800    5.1900
    5.2000    5.2100    5.2200    5.2300    5.2400    5.2500    5.2600    5.2700
    5.2800    5.2900    5.3000    5.3100    5.3200    5.3300    5.3400    5.3500
    5.3600    5.3700    5.3800    5.3900    5.4000    5.4100    5.4200    5.4300
    5.4400    5.4500    5.4600    5.4700    5.4800    5.4900    5.5000    5.5100
    5.5200    5.5300    5.5400    5.5500    5.5600    5.5700    5.5800    5.5900
    5.6000    5.6100    5.6200    5.6300    5.6400    5.6500    5.6600    5.6700
    5.6800    5.6900    5.7000    5.7100    5.7200    5.7300    5.7400    5.7500
    5.7600    5.7700    5.7800    5.7900    5.8000    5.8100    5.8200    5.8300
    5.8400    5.8500    5.8600    5.8700    5.8800    5.8900    5.9000    5.9100
    5.9200    5.9300    5.9400    5.9500    5.9600    5.9700    5.9800    5.9900
    6.0000    6.0100
   </PP_R>
   <PP_RAB type="real"  size=" 602" columns="8">
    0.0100    0.0100    0.0100    0.0100    0.0100    0.0100    0.0100    0.0100
    0.0100    0.0100    0.0100    0.0100    0.0100    0.0100    0.0100    0.0100
    0.0100    0.0100    0.0100    0.0100    0.0100    0.0100    0.0100    0.0100
    0.0100    0.0100    0.0100    0.0100    0.0100    0.0100    0.0100    0.0100
    0.0100    0.0100    0.0100    0.0100    0.0100    0.0100    0.0100    0.0100
    0.0100    0.0100    0.0100    0.0100    0.0100    0.0100    0.0100    0.0100
    0.0100    0.0100    0.0100    0.0100    0.0100    0.0100    0.0100    0.0100
    0.0100    0.0100    0.0100    0.0100    0.0100    0.0100    0.0100    0.0100
    0.0100    0.0100    0.0100    0.0100    0.0100    0.0100    0.0100    0.0100
    0.0100    0.0100    0.0100    0.0100    0.0100    0.0100    0.0100    0.0100
    0.0100    0.0100    0.0100    0.0100    0.0100    0.0100    0.0100    0.0100
    0.0100    0.0100    0.0100    0.0100    0.0100    0.0100    0.0100    0.0100
    0.0100    0.0100    0.0100    0.0100    0.0100    0.0100    0.0100    0.0100
    0.0100    0.0100    0.0100    0.0100    0.0100    0.0100    0.0100    0.0100
    0.0100    0.0100    0.0100    0.0100    0.0100    0.0100    0.0100    0.0100
    0.0100    0.0100    0.0100    0.0100    0.0100    0.0100    0.0100    0.0100
    0.0100    0.0100    0.0100    0.0100    0.0100    0.0100    0.0100    0.0100
    0.0100    0.0100    0.0100    0.0100    0.0100    0.0100    0.0100    0.0100
    0.0100    0.0100    0.0100    0.0100    0.0100    0.0100    0.0100    0.0100
    0.0100    0.0100    0.0100    0.0100    0.0100    0.0100    0.0100    0.0100
    0.0100    0.0100    0.0100    0.0100    0.0100    0.0100    0.0100    0.0100
    0.0100    0.0100    0.0100    0.0100    0.0100    0.0100    0.0100    0.0100
    0.0100    0.0100    0.0100    0.0100    0.0100    0.0100    0.0100    0.0100
    0.0100    0.0100    0.0100    0.0100    0.0100    0.0100    0.0100    0.0100
    0.0100    0.0100    0.0100    0.0100    0.0100    0.0100    0.0100    0.0100
    0.0100    0.0100    0.0100    0.0100    0.0100    0.0100    0.0100    0.0100
    0.0100    0.0100    0.0100    0.0100    0.0100    0.0100    0.0100    0.0100
    0.0100    0.0100    0.0100    0.0100    0.0100    0.0100    0.0100    0.0100
    0.0100    0.0100    0.0100    0.0100    0.0100    0.0100    0.0100    0.0100
    0.0100    0.0100    0.0100    0.0100    0.0100    0.0100    0.0100    0.0100
    0.0100    0.0100    0.0100    0.0100    0.0100    0.0100    0.0100    0.0100
    0.0100    0.0100    0.0100    0.0100    0.0100    0.0100    0.0100    0.0100
    0.0100    0.0100    0.0100    0.0100    0.0100    0.0100    0.0100    0.0100
    0.0100    0.0100    0.0100    0.0100    0.0100    0.0100    0.0100    0.0100
    0.0100    0.0100    0.0100    0.0100    0.0100    0.0100    0.0100    0.0100
    0.0100    0.0100    0.0100    0.0100    0.0100    0.0100    0.0100    0.0100
    0.0100    0.0100    0.0100    0.0100    0.0100    0.0100    0.0100    0.0100
    0.0100    0.0100    0.0100    0.0100    0.0100    0.0100    0.0100    0.0100
    0.0100    0.0100    0.0100    0.0100    0.0100    0.0100    0.0100    0.0100
    0.0100    0.0100    0.0100    0.0100    0.0100    0.0100    0.0100    0.0100
    0.0100    0.0100    0.0100    0.0100    0.0100    0.0100    0.0100    0.0100
    0.0100    0.0100    0.0100    0.0100    0.0100    0.0100    0.0100    0.0100
    0.0100    0.0100    0.0100    0.0100    0.0100    0.0100    0.0100    0.0100
    0.0100    0.0100    0.0100    0.0100    0.0100    0.0100    0.0100    0.0100
    0.0100    0.0100    0.0100    0.0100    0.0100    0.0100    0.0100    0.0100
    0.0100    0.0100    0.0100    0.0100    0.0100    0.0100    0.0100    0.0100
    0.0100    0.0100    0.0100    0.0100    0.0100    0.0100    0.0100    0.0100
    0.0100    0.0100    0.0100    0.0100    0.0100    0.0100    0.0100    0.0100
    0.0100    0.0100    0.0100    0.0100    0.0100    0.0100    0.0100    0.0100
    0.0100    0.0100    0.0100    0.0100    0.0100    0.0100    0.0100    0.0100
    0.0100    0.0100    0.0100    0.0100    0.0100    0.0100    0.0100    0.0100
    0.0100    0.0100    0.0100    0.0100    0.0100    0.0100    0.0100    0.0100
    0.0100    0.0100    0.0100    0.0100    0.0100    0.0100    0.0100    0.0100
    0.0100    0.0100    0.0100    0.0100    0.0100    0.0100    0.0100    0.0100
    0.0100    0.0100    0.0100    0.0100    0.0100    0.0100    0.0100    0.0100
    0.0100    0.0100    0.0100    0.0100    0.0100    0.0100    0.0100    0.0100
    0.0100    0.0100    0.0100    0.0100    0.0100    0.0100    0.0100    0.0100
    0.0100    0.0100    0.0100    0.0100    0.0100    0.0100    0.0100    0.0100
    0.0100    0.0100    0.0100    0.0100    0.0100    0.0100    0.0100    0.0100
    0.0100    0.0100    0.0100    0.0100    0.0100    0.0100    0.0100    0.0100
    0.0100    0.0100    0.0100    0.0100    0.0100    0.0100    0.0100    0.0100
    0.0100    0.0100    0.0100    0.0100    0.0100    0.0100    0.0100    0.0100
    0.0100    0.0100    0.0100    0.0100    0.0100    0.0100    0.0100    0.0100
    0.0100    0.0100    0.0100    0.0100    0.0100    0.0100    0.0100    0.0100
    0.0100    0.0100    0.0100    0.0100    0.0100    0.0100    0.0100    0.0100
    0.0100    0.0100    0.0100    0.0100    0.0100    0.0100    0.0100    0.0100
    0.0100    0.0100    0.0100    0.0100    0.0100    0.0100    0.0100    0.0100
    0.0100    0.0100    0.0100    0.0100    0.0100    0.0100    0.0100    0.0100
    0.0100    0.0100    0.0100    0.0100    0.0100    0.0100    0.0100    0.0100
    0.0100    0.0100    0.0100    0.0100    0.0100    0.0100    0.0100    0.0100
    0.0100    0.0100    0.0100    0.0100    0.0100    0.0100    0.0100    0.0100
    0.0100    0.0100    0.0100    0.0100    0.0100    0.0100    0.0100    0.0100
    0.0100    0.0100    0.0100    0.0100    0.0100    0.0100    0.0100    0.0100
    0.0100    0.0100    0.0100    0.0100    0.0100    0.0100    0.0100    0.0100
    0.0100    0.0100    0.0100    0.0100    0.0100    0.0100    0.0100    0.0100
    0.0100    0.0100
   </PP_RAB>
 </PP_MESH>
  <PP_LOCAL type="real"  size=" 602" columns="4">
   -4.1830551853E+01   -4.1829281993E+01   -4.1825566294E+01   -4.1819297514E+01
   -4.1810368416E+01   -4.1798641331E+01   -4.1783958733E+01   -4.1766154509E+01
   -4.1745064784E+01   -4.1720537362E+01   -4.1692439139E+01   -4.1660661203E+01
   -4.1625121627E+01   -4.1585766175E+01   -4.1542567333E+01   -4.1495522080E+01
   -4.1444648857E+01   -4.1389984128E+01   -4.1331578840E+01   -4.1269495022E+01
   -4.1203802682E+01   -4.1134577082E+01   -4.1061896444E+01   -4.0985840063E+01
   -4.0906486820E+01   -4.0823914050E+01   -4.0738196696E+01   -4.0649406738E+01
   -4.0557612808E+01   -4.0462879982E+01   -4.0365269691E+01   -4.0264839731E+01
   -4.0161644346E+01   -4.0055734368E+01   -3.9947157364E+01   -3.9835957854E+01
   -3.9722177495E+01   -3.9605855309E+01   -3.9487027895E+01   -3.9365729644E+01
   -3.9241992960E+01   -3.9115848466E+01   -3.8987325216E+01   -3.8856450896E+01
   -3.8723252020E+01   -3.8587754126E+01   -3.8449981963E+01   -3.8309959675E+01
   -3.8167710982E+01   -3.8023259349E+01   -3.7876628161E+01   -3.7727840883E+01
   -3.7576921220E+01   -3.7423893274E+01   -3.7268781686E+01   -3.7111611774E+01
   -3.6952409680E+01   -3.6791202470E+01   -3.6628018284E+01   -3.6462886407E+01
   -3.6295837400E+01   -3.6126903170E+01   -3.5956117028E+01   -3.5783513818E+01
   -3.5609129897E+01   -3.5433003207E+01   -3.5255173346E+01   -3.5075681529E+01
   -3.4894570595E+01   -3.4711885068E+01   -3.4527671095E+01   -3.4341976424E+01
   -3.4154850372E+01   -3.3966343773E+01   -3.3776508971E+01   -3.3585399725E+01
   -3.3393071141E+01   -3.3199579614E+01   -3.3004982744E+01   -3.2809339265E+01
   -3.2612708954E+01   -3.2415152550E+01   -3.2216731664E+01   -3.2017508695E+01
   -3.1817546736E+01   -3.1616909488E+01   -3.1415661173E+01   -3.1213866448E+01
   -3.1011590315E+01   -3.0808898047E+01   -3.0605855095E+01   -3.0402527022E+01
   -3.0198979417E+01   -2.9995277824E+01   -2.9791487672E+01   -2.9587674204E+01
   -2.9383902413E+01   -2.9180236980E+01   -2.8976742217E+01   -2.8773481976E+01
   -2.8570519621E+01   -2.8367917966E+01   -2.8165739220E+01   -2.7964044938E+01
   -2.7762896018E+01   -2.7562352498E+01   -2.7362473647E+01   -2.7163317880E+01
   -2.6964942731E+01   -2.6767404851E+01   -2.6570759728E+01   -2.6375061881E+01
   -2.6180364757E+01   -2.5986720846E+01   -2.5794181154E+01   -2.5602795584E+01
   -2.5412612844E+01   -2.5223680485E+01   -2.5036044321E+01   -2.4849748965E+01
   -2.4664837848E+01   -2.4481352599E+01   -2.4299333285E+01   -2.4118818731E+01
   -2.3939846082E+01   -2.3762450451E+01   -2.3586665723E+01   -2.3412524093E+01
   -2.3240055374E+01   -2.3069288223E+01   -2.2900249362E+01   -2.2732962994E+01
   -2.2567452317E+01   -2.2403737985E+01   -2.2241838347E+01   -2.2081770958E+01
   -2.1923549739E+01   -2.1767187294E+01   -2.1612694595E+01   -2.1460078920E+01
   -2.1309347132E+01   -2.1160502462E+01   -2.1013546230E+01   -2.0868478454E+01
   -2.0725294773E+01   -2.0583991002E+01   -2.0444558274E+01   -2.0306986766E+01
   -2.0171264085E+01   -2.0037374320E+01   -1.9905301494E+01   -1.9775023876E+01
   -1.9646520966E+01   -1.9519766310E+01   -1.9394733783E+01   -1.9271392887E+01
   -1.9149711696E+01   -1.9029655105E+01   -1.8911187666E+01   -1.8794272674E+01
   -1.8678875489E+01   -1.8564961086E+01   -1.8452496739E+01   -1.8341448924E+01
   -1.8231786818E+01   -1.8123478415E+01   -1.8016494764E+01   -1.7910805433E+01
   -1.7806383282E+01   -1.7703199529E+01   -1.7601228762E+01   -1.7500443856E+01
   -1.7400821063E+01   -1.7302334951E+01   -1.7204963286E+01   -1.7108682357E+01
   -1.7013471290E+01   -1.6919308087E+01   -1.6826173069E+01   -1.6734045924E+01
   -1.6642907998E+01   -1.6552740598E+01   -1.6463525942E+01   -1.6375246857E+01
   -1.6287886305E+01   -1.6201428491E+01   -1.6115857029E+01   -1.6031157319E+01
   -1.5947313631E+01   -1.5864312186E+01   -1.5782138291E+01   -1.5700778454E+01
   -1.5620219067E+01   -1.5540446867E+01   -1.5461449250E+01   -1.5383213147E+01
   -1.5305726801E+01   -1.5228977611E+01   -1.5152954244E+01   -1.5077644980E+01
   -1.5003038557E+01   -1.4929124339E+01   -1.4855891043E+01   -1.4783328999E+01
   -1.4711427561E+01   -1.4640177272E+01   -1.4569568732E+01   -1.4499592330E+01
   -1.4430239959E+01   -1.4361502383E+01   -1.4293371971E+01   -1.4225840854E+01
   -1.4158901074E+01   -1.4092546181E+01   -1.4026768591E+01   -1.3961562204E+01
   -1.3896920840E+01   -1.3832837955E+01   -1.3769308533E+01   -1.3706326648E+01
   -1.3643887168E+01   -1.3581985338E+01   -1.3520615746E+01   -1.3459774180E+01
   -1.3399455964E+01   -1.3339656490E+01   -1.3280371615E+01   -1.3221596930E+01
   -1.3163328194E+01   -1.3105561218E+01   -1.3048291803E+01   -1.2991515655E+01
   -1.2935228536E+01   -1.2879426259E+01   -1.2824104292E+01   -1.2769258334E+01
   -1.2714883958E+01   -1.2660976409E+01   -1.2607531249E+01   -1.2554543705E+01
   -1.2502008826E+01   -1.2449921982E+01   -1.2398278071E+01   -1.2347071972E+01
   -1.2296298845E+01   -1.2245953328E+01   -1.2196030147E+01   -1.2146524184E+01
   -1.2097430015E+01   -1.2048742301E+01   -1.2000455689E+01   -1.1952564891E+01
   -1.1905064599E+01   -1.1857949371E+01   -1.1811214121E+01   -1.1764853640E+01
   -1.1718862419E+01   -1.1673235737E+01   -1.1627968617E+01   -1.1583055664E+01
   -1.1538492514E+01   -1.1494274529E+01   -1.1450396578E+01   -1.1406854599E+01
   -1.1363644397E+01   -1.1320761233E+01   -1.1278201262E+01   -1.1235960790E+01
   -1.1194035550E+01   -1.1152421832E+01   -1.1111116517E+01   -1.1070116012E+01
   -1.1029416741E+01   -1.0989015728E+01   -1.0948909720E+01   -1.0909095299E+01
   -1.0869569510E+01   -1.0830329217E+01   -1.0791371076E+01   -1.0752692208E+01
   -1.0714289711E+01   -1.0676160506E+01   -1.0638301638E+01   -1.0600710415E+01
   -1.0563383987E+01   -1.0526319318E+01   -1.0489513924E+01   -1.0452965100E+01
   -1.0416669989E+01   -1.0380626036E+01   -1.0344830747E+01   -1.0309281498E+01
   -1.0273975599E+01   -1.0238910774E+01   -1.0204084565E+01   -1.0169494354E+01
   -1.0135137856E+01   -1.0101012795E+01   -1.0067116788E+01   -1.0033447371E+01
   -1.0000002489E+01   -9.9667799077E+00   -9.9337772610E+00   -9.9009924208E+00
   -9.8684233447E+00   -9.8360679027E+00   -9.8039237639E+00   -9.7719890931E+00
   -9.7402618624E+00   -9.7087399716E+00   -9.6774213504E+00   -9.6463042013E+00
   -9.6153865883E+00   -9.5846664486E+00   -9.5541419500E+00   -9.5238113242E+00
   -9.4936727255E+00   -9.4637241388E+00   -9.4339639359E+00   -9.4043903823E+00
   -9.3750017020E+00   -9.3457959851E+00   -9.3167717253E+00   -9.2879272449E+00
   -9.2592608190E+00   -9.2307706931E+00   -9.2024554088E+00   -9.1743133665E+00
   -9.1463428991E+00   -9.1185423813E+00   -9.0909104064E+00   -9.0634454491E+00
   -9.0361459064E+00   -9.0090102561E+00   -8.9820371483E+00   -8.9552251288E+00
   -8.9285726636E+00   -8.9020783097E+00   -8.8757407788E+00   -8.8495586845E+00
   -8.8235305670E+00   -8.7976550394E+00   -8.7719308802E+00   -8.7463567674E+00
   -8.7209313204E+00   -8.6956531868E+00   -8.6705212163E+00   -8.6455341488E+00
   -8.6206906871E+00   -8.5959894937E+00   -8.5714294937E+00   -8.5470094854E+00
   -8.5227282597E+00   -8.4985844765E+00   -8.4745771385E+00   -8.4507051003E+00
   -8.4269672164E+00   -8.4033622136E+00   -8.3798890891E+00   -8.3565467790E+00
   -8.3333341912E+00   -8.3102501486E+00   -8.2872936016E+00   -8.2644635786E+00
   -8.2417590384E+00   -8.2191789055E+00   -8.1967220685E+00   -8.1743876492E+00
   -8.1521746550E+00   -8.1300820933E+00   -8.1081088490E+00   -8.0862540673E+00
   -8.0645168246E+00   -8.0428961745E+00   -8.0213911100E+00   -8.0000006795E+00
   -7.9787240639E+00   -7.9575603609E+00   -7.9365086682E+00   -7.9155679557E+00
   -7.8947374781E+00   -7.8740163843E+00   -7.8534038141E+00   -7.8328988522E+00
   -7.8125006263E+00   -7.7922083985E+00   -7.7720213484E+00   -7.7519386559E+00
   -7.7319593943E+00   -7.7120828538E+00   -7.6923082785E+00   -7.6726348866E+00
   -7.6530618748E+00   -7.6335883798E+00   -7.6142137638E+00   -7.5949372812E+00
   -7.5757581864E+00   -7.5566756750E+00   -7.5376890064E+00   -7.5187975390E+00
   -7.5000005619E+00   -7.4812973643E+00   -7.4626871487E+00   -7.4441692757E+00
   -7.4257431054E+00   -7.4074079601E+00   -7.3891631622E+00   -7.3710079282E+00
   -7.3529416991E+00   -7.3349638431E+00   -7.3170737142E+00   -7.2992706648E+00
   -7.2815539358E+00   -7.2639230253E+00   -7.2463773172E+00   -7.2289161957E+00
   -7.2115390353E+00   -7.1942451265E+00   -7.1770339865E+00   -7.1599050281E+00
   -7.1428576638E+00   -7.1258912963E+00   -7.1090052491E+00   -7.0921990633E+00
   -7.0754721791E+00   -7.0588240365E+00   -7.0422540713E+00   -7.0257616243E+00
   -7.0093462655E+00   -6.9930074612E+00   -6.9767446774E+00   -6.9605573803E+00
   -6.9444449376E+00   -6.9284069283E+00   -6.9124428515E+00   -6.8965521983E+00
   -6.8807344595E+00   -6.8649890474E+00   -6.8493155227E+00   -6.8337134267E+00
   -6.8181822742E+00   -6.8027215797E+00   -6.7873308045E+00   -6.7720094782E+00
   -6.7567571881E+00   -6.7415734715E+00   -6.7264578657E+00   -6.7114098858E+00
   -6.6964290179E+00   -6.6815148988E+00   -6.6666670872E+00   -6.6518851422E+00
   -6.6371686227E+00   -6.6225170039E+00   -6.6079299315E+00   -6.5934069990E+00
   -6.5789477859E+00   -6.5645518715E+00   -6.5502187935E+00   -6.5359481268E+00
   -6.5217395249E+00   -6.5075925868E+00   -6.4935069116E+00   -6.4794820984E+00
   -6.4655176591E+00   -6.4516132916E+00   -6.4377686190E+00   -6.4239832591E+00
   -6.4102568297E+00   -6.3965889128E+00   -6.3829791120E+00   -6.3694271191E+00
   -6.3559325697E+00   -6.3424950993E+00   -6.3291143433E+00   -6.3157898696E+00
   -6.3025213726E+00   -6.2893085262E+00   -6.2761509831E+00   -6.2630483956E+00
   -6.2500004102E+00   -6.2370066065E+00   -6.2240667331E+00   -6.2111804587E+00
   -6.1983474520E+00   -6.1855673817E+00   -6.1728398897E+00   -6.1601646175E+00
   -6.1475413077E+00   -6.1349696446E+00   -6.1224493122E+00   -6.1099799948E+00
   -6.0975613358E+00   -6.0851930237E+00   -6.0728748005E+00   -6.0606063649E+00
   -6.0483874160E+00   -6.0362176525E+00   -6.0240967255E+00   -6.0120243557E+00
   -6.0000002898E+00   -5.9880242408E+00   -5.9760959216E+00   -5.9642150450E+00
   -5.9523812749E+00   -5.9405943505E+00   -5.9288540287E+00   -5.9171600359E+00
   -5.9055120983E+00   -5.8939099421E+00   -5.8823532489E+00   -5.8708417636E+00
   -5.8593752585E+00   -5.8479534724E+00   -5.8365761445E+00   -5.8252430138E+00
   -5.8139537841E+00   -5.8027081940E+00   -5.7915060358E+00   -5.7803470604E+00
   -5.7692310192E+00   -5.7581576634E+00   -5.7471267234E+00   -5.7361379206E+00
   -5.7251910713E+00   -5.7142859381E+00   -5.7034222840E+00   -5.6925998715E+00
   -5.6818184625E+00   -5.6710777506E+00   -5.6603775797E+00   -5.6497177237E+00
   -5.6390979564E+00   -5.6285180517E+00   -5.6179777833E+00   -5.6074768771E+00
   -5.5970151391E+00   -5.5865923764E+00   -5.5762083734E+00   -5.5658629145E+00
   -5.5555557840E+00   -5.5452867476E+00   -5.5350555606E+00   -5.5248620676E+00
   -5.5147060631E+00   -5.5045873414E+00   -5.4945056970E+00   -5.4844609243E+00
   -5.4744527654E+00   -5.4644810593E+00   -5.4545456249E+00   -5.4446462663E+00
   -5.4347827874E+00   -5.4249549923E+00   -5.4151626708E+00   -5.4054055913E+00
   -5.3956836184E+00   -5.3859965651E+00   -5.3763442447E+00   -5.3667264703E+00
   -5.3571430550E+00   -5.3475937754E+00   -5.3380784578E+00   -5.3285969522E+00
   -5.3191490804E+00   -5.3097346641E+00   -5.3003535252E+00   -5.2910054855E+00
   -5.2816903144E+00   -5.2724078830E+00   -5.2631580314E+00   -5.2539405898E+00
   -5.2447553883E+00   -5.2356022570E+00   -5.2264810239E+00   -5.2173914631E+00
   -5.2083334709E+00   -5.1993068854E+00   -5.1903115447E+00   -5.1813472867E+00
   -5.1724139497E+00   -5.1635113625E+00   -5.1546393227E+00   -5.1457977264E+00
   -5.1369864191E+00   -5.1282052465E+00   -5.1194540542E+00   -5.1107326877E+00
   -5.1020409823E+00   -5.0933787472E+00   -5.0847458831E+00   -5.0761422427E+00
   -5.0675676789E+00   -5.0590220443E+00   -5.0505051919E+00   -5.0420169672E+00
   -5.0335571813E+00   -5.0251257435E+00   -5.0167225132E+00   -5.0083473503E+00
   -5.0000001144E+00   -4.9916806651E+00
  </PP_LOCAL>
 <PP_NONLOCAL>
   <PP_BETA.1
       type="real"
       size=" 602"
       columns="4"
       index="1"
       angular_momentum="0"
       cutoff_radius_index=" 272"
       cutoff_radius="    2.7100000000E+00" >
    0.0000000000E+00    4.6598016039E-03    9.3015239383E-03    1.3907050642E-02
    1.8458191613E-02    2.2936647240E-02    2.7323973953E-02    3.1601551519E-02
    3.5750552499E-02    3.9751914282E-02    4.3586314083E-02    4.7234147285E-02
    5.0675509484E-02    5.3890182586E-02    5.6857625260E-02    5.9556968055E-02
    6.1967013445E-02    6.4066241039E-02    6.5832818183E-02    6.7244616120E-02
    6.8279231876E-02    6.8914015975E-02    6.9126106074E-02    6.8892466584E-02
    6.8189934252E-02    6.6995269669E-02    6.5285214824E-02    6.3036556282E-02
    6.0226194074E-02    5.6831216148E-02    5.2828978087E-02    4.8197187876E-02
    4.2913995401E-02    3.6958085533E-02    3.0308778372E-02    2.2946127518E-02
    1.4851028972E-02    6.0053249140E-03   -3.6080834606E-03   -1.4005124414E-02
   -2.5200443589E-02   -3.7207289529E-02   -5.0037399611E-02   -6.3700886451E-02
   -7.8206125399E-02   -9.3559643708E-02   -1.0976601205E-01   -1.2682773909E-01
   -1.4474517019E-01   -1.6351639392E-01   -1.8313713650E-01   -2.0360068697E-01
   -2.2489782167E-01   -2.4701670874E-01   -2.6994286239E-01   -2.9365908084E-01
   -3.1814538154E-01   -3.4337898957E-01   -3.6933427095E-01   -3.9598274813E-01
   -4.2329306146E-01   -4.5123098405E-01   -4.7975944180E-01   -5.0883851044E-01
   -5.3842548209E-01   -5.6847489912E-01   -5.9893860844E-01   -6.2976584815E-01