<UPF version="2.0.1">
  <PP_INFO>

 Ti_ONCV_PBE_FR-1.0.upf

 This pseudopotential file has been produced using the code
 ONCVPSP  (Optimized Norm-Conservinng Vanderbilt PSeudopotential)
 fully-relativistic version 2.1.1, 03/26/2014 by D. R. Hamann
 The code is available through a link at URL www.mat-simresearch.com.
 Documentation with the package provides a full description of the
 input data below.

 While it is not required under the terms of the GNU GPL, it is
 suggested that you cite D. R. Hamann, Phys. Rev. B 88, 085117 (2013)
 in any publication using these pseudopotentials.

 -----

 This pseudopotential was produced with the SG15 1.0 and/or 1.1
 parameter sets, the Schlipf-Gygi norm-conserving pseudopotential
 library. For details of the construction and testing of the
 pseudopotential please refer to:

 M. Schlipf, F. Gygi, Comp. Phys. Comm. 196, 36 (2015)
 http://dx.doi.org/10.1016/j.cpc.2015.05.011

 The above authors kindly ask that you include this reference in all
 publications associated to this pseudopotential.

 Please note this fully-relativistic version does not employ the
 above self-consistent procedure at the fully-relativistic level.

 -----

 This pseudopotential was produced by Peter Scherpelz for the purpose
 of performing GW calculations with spin-orbit-coupling. Please see
 the publication:

 P. Scherpelz, M. Govoni, I. Hamada, G. Galli; J. Chem. Theory Comput. (2016)
 http://dx.doi.org/10.1021/acs.jctc.6b00114

 If you use these pseudopotentials in your work, we also kindly ask
 that you cite the above publication.

 -----

 This work is licensed under the Creative Commons Attribution-ShareAlike 
 4.0 International License. To view a copy of this license, visit 
 http://creativecommons.org/licenses/by-sa/4.0/ or send a letter to 
 Creative Commons, PO Box 1866, Mountain View, CA 94042, USA.

 The SG15 library is Copyright 2015 The Regents of the University of
 California.  Further modifications of these files are Copyright 2016
 Peter Scherpelz.

    <PP_INPUTFILE>
# ATOM AND REFERENCE CONFIGURATION
# atsym  z    nc    nv    iexc   psfile
  Ti 22.00     3     4     4      upf
#
#   n    l    f        energy (Ha)
    1    0    2.00
    2    0    2.00
    2    1    6.00
    3    0    2.00
    3    1    6.00
    4    0    2.00
    3    2    2.00
#
# PSEUDOPOTENTIAL AND OPTIMIZATION
# lmax
    2
#
#   l,   rc,     ep,   ncon, nbas, qcut
    0    2.47   -2.30    5    8    3.76
    1    2.32   -1.42    5    8    6.54
    2    2.27   -0.16    5    8    7.03
#
# LOCAL POTENTIAL
# lloc, lpopt,  rc(5),   dvloc0
    4    5      1.64       0.00
#
# VANDERBILT-KLEINMAN-BYLANDER PROJECTORs
# l, nproj, debl
    0    2    2.1372
    1    2    2.1165
    2    2    1.1783
#
# MODEL CORE CHARGE
# icmod, fcfact
    0    0.00
#
# LOG DERIVATIVE ANALYSIS
# epsh1, epsh2, depsh
   -5.00    3.00    0.02
#
# OUTPUT GRID
# rlmax, drl
    6.00    0.01
#
# TEST CONFIGURATIONS
# ncnf
    0
# nvcnf
#   n    l    f
    </PP_INPUTFILE>
  </PP_INFO>
  <!--                               -->
  <!-- END OF HUMAN READABLE SECTION -->
  <!--                               -->
    <PP_HEADER
       generated="Generated using ONCVPSP code by D. R. Hamann"
       author="anonymous"
       date="150703"
       comment=""
       element="Ti"
       pseudo_type="NC"
       relativistic="full"
       is_ultrasoft="F"
       is_paw="F"
       is_coulomb="F"
       has_so="T"
       has_wfc="F"
       has_gipaw="F"
       core_correction="F"
       functional="PBE"
       z_valence="   12.00"
       total_psenergy="  -5.74428518177E+01"
       rho_cutoff="   6.01000000000E+00"
       l_max="2"
       l_local="-1"
       mesh_size="   602"
       number_of_wfc="0"
       number_of_proj="10"/>
 <PP_MESH>
   <PP_R type="real"  size=" 602" columns="8">
    0.0000    0.0100    0.0200    0.0300    0.0400    0.0500    0.0600    0.0700
    0.0800    0.0900    0.1000    0.1100    0.1200    0.1300    0.1400    0.1500
    0.1600    0.1700    0.1800    0.1900    0.2000    0.2100    0.2200    0.2300
    0.2400    0.2500    0.2600    0.2700    0.2800    0.2900    0.3000    0.3100
    0.3200    0.3300    0.3400    0.3500    0.3600    0.3700    0.3800    0.3900
    0.4000    0.4100    0.4200    0.4300    0.4400    0.4500    0.4600    0.4700
    0.4800    0.4900    0.5000    0.5100    0.5200    0.5300    0.5400    0.5500
    0.5600    0.5700    0.5800    0.5900    0.6000    0.6100    0.6200    0.6300
    0.6400    0.6500    0.6600    0.6700    0.6800    0.6900    0.7000    0.7100
    0.7200    0.7300    0.7400    0.7500    0.7600    0.7700    0.7800    0.7900
    0.8000    0.8100    0.8200    0.8300    0.8400    0.8500    0.8600    0.8700
    0.8800    0.8900    0.9000    0.9100    0.9200    0.9300    0.9400    0.9500
    0.9600    0.9700    0.9800    0.9900    1.0000    1.0100    1.0200    1.0300
    1.0400    1.0500    1.0600    1.0700    1.0800    1.0900    1.1000    1.1100
    1.1200    1.1300    1.1400    1.1500    1.1600    1.1700    1.1800    1.1900
    1.2000    1.2100    1.2200    1.2300    1.2400    1.2500    1.2600    1.2700
    1.2800    1.2900    1.3000    1.3100    1.3200    1.3300    1.3400    1.3500
    1.3600    1.3700    1.3800    1.3900    1.4000    1.4100    1.4200    1.4300
    1.4400    1.4500    1.4600    1.4700    1.4800    1.4900    1.5000    1.5100
    1.5200    1.5300    1.5400    1.5500    1.5600    1.5700    1.5800    1.5900
    1.6000    1.6100    1.6200    1.6300    1.6400    1.6500    1.6600    1.6700
    1.6800    1.6900    1.7000    1.7100    1.7200    1.7300    1.7400    1.7500
    1.7600    1.7700    1.7800    1.7900    1.8000    1.8100    1.8200    1.8300
    1.8400    1.8500    1.8600    1.8700    1.8800    1.8900    1.9000    1.9100
    1.9200    1.9300    1.9400    1.9500    1.9600    1.9700    1.9800    1.9900
    2.0000    2.0100    2.0200    2.0300    2.0400    2.0500    2.0600    2.0700
    2.0800    2.0900    2.1000    2.1100    2.1200    2.1300    2.1400    2.1500
    2.1600    2.1700    2.1800    2.1900    2.2000    2.2100    2.2200    2.2300
    2.2400    2.2500    2.2600    2.2700    2.2800    2.2900    2.3000    2.3100
    2.3200    2.3300    2.3400    2.3500    2.3600    2.3700    2.3800    2.3900
    2.4000    2.4100    2.4200    2.4300    2.4400    2.4500    2.4600    2.4700
    2.4800    2.4900    2.5000    2.5100    2.5200    2.5300    2.5400    2.5500
    2.5600    2.5700    2.5800    2.5900    2.6000    2.6100    2.6200    2.6300
    2.6400    2.6500    2.6600    2.6700    2.6800    2.6900    2.7000    2.7100
    2.7200    2.7300    2.7400    2.7500    2.7600    2.7700    2.7800    2.7900
    2.8000    2.8100    2.8200    2.8300    2.8400    2.8500    2.8600    2.8700
    2.8800    2.8900    2.9000    2.9100    2.9200    2.9300    2.9400    2.9500
    2.9600    2.9700    2.9800    2.9900    3.0000    3.0100    3.0200    3.0300
    3.0400    3.0500    3.0600    3.0700    3.0800    3.0900    3.1000    3.1100
    3.1200    3.1300    3.1400    3.1500    3.1600    3.1700    3.1800    3.1900
    3.2000    3.2100    3.2200    3.2300    3.2400    3.2500    3.2600    3.2700
    3.2800    3.2900    3.3000    3.3100    3.3200    3.3300    3.3400    3.3500
    3.3600    3.3700    3.3800    3.3900    3.4000    3.4100    3.4200    3.4300
    3.4400    3.4500    3.4600    3.4700    3.4800    3.4900    3.5000    3.5100
    3.5200    3.5300    3.5400    3.5500    3.5600    3.5700    3.5800    3.5900
    3.6000    3.6100    3.6200    3.6300    3.6400    3.6500    3.6600    3.6700
    3.6800    3.6900    3.7000    3.7100    3.7200    3.7300    3.7400    3.7500
    3.7600    3.7700    3.7800    3.7900    3.8000    3.8100    3.8200    3.8300
    3.8400    3.8500    3.8600    3.8700    3.8800    3.8900    3.9000    3.9100
    3.9200    3.9300    3.9400    3.9500    3.9600    3.9700    3.9800    3.9900
    4.0000    4.0100    4.0200    4.0300    4.0400    4.0500    4.0600    4.0700
    4.0800    4.0900    4.1000    4.1100    4.1200    4.1300    4.1400    4.1500
    4.1600    4.1700    4.1800    4.1900    4.2000    4.2100    4.2200    4.2300
    4.2400    4.2500    4.2600    4.2700    4.2800    4.2900    4.3000    4.3100
    4.3200    4.3300    4.3400    4.3500    4.3600    4.3700    4.3800    4.3900
    4.4000    4.4100    4.4200    4.4300    4.4400    4.4500    4.4600    4.4700
    4.4800    4.4900    4.5000    4.5100    4.5200    4.5300    4.5400    4.5500
    4.5600    4.5700    4.5800    4.5900    4.6000    4.6100    4.6200    4.6300
    4.6400    4.6500    4.6600    4.6700    4.6800    4.6900    4.7000    4.7100
    4.7200    4.7300    4.7400    4.7500    4.7600    4.7700    4.7800    4.7900
    4.8000    4.8100    4.8200    4.8300    4.8400    4.8500    4.8600    4.8700
    4.8800    4.8900    4.9000    4.9100    4.9200    4.9300    4.9400    4.9500
    4.9600    4.9700    4.9800    4.9900    5.0000    5.0100    5.0200    5.0300
    5.0400    5.0500    5.0600    5.0700    5.0800    5.0900    5.1000    5.1100
    5.1200    5.1300    5.1400    5.1500    5.1600    5.1700    5.1800    5.1900
    5.2000    5.2100    5.2200    5.2300    5.2400    5.2500    5.2600    5.2700
    5.2800    5.2900    5.3000    5.3100    5.3200    5.3300    5.3400    5.3500
    5.3600    5.3700    5.3800    5.3900    5.4000    5.4100    5.4200    5.4300
    5.4400    5.4500    5.4600    5.4700    5.4800    5.4900    5.5000    5.5100
    5.5200    5.5300    5.5400    5.5500    5.5600    5.5700    5.5800    5.5900
    5.6000    5.6100    5.6200    5.6300    5.6400    5.6500    5.6600    5.6700
    5.6800    5.6900    5.7000    5.7100    5.7200    5.7300    5.7400    5.7500
    5.7600    5.7700    5.7800    5.7900    5.8000    5.8100    5.8200    5.8300
    5.8400    5.8500    5.8600    5.8700    5.8800    5.8900    5.9000    5.9100
    5.9200    5.9300    5.9400    5.9500    5.9600    5.9700    5.9800    5.9900
    6.0000    6.0100
   </PP_R>
   <PP_RAB type="real"  size=" 602" columns="8">
    0.0100    0.0100    0.0100    0.0100    0.0100    0.0100    0.0100    0.0100
    0.0100    0.0100    0.0100    0.0100    0.0100    0.0100    0.0100    0.0100
    0.0100    0.0100    0.0100    0.0100    0.0100    0.0100    0.0100    0.0100
    0.0100    0.0100    0.0100    0.0100    0.0100    0.0100    0.0100    0.0100
    0.0100    0.0100    0.0100    0.0100    0.0100    0.0100    0.0100    0.0100
    0.0100    0.0100    0.0100    0.0100    0.0100    0.0100    0.0100    0.0100
    0.0100    0.0100    0.0100    0.0100    0.0100    0.0100    0.0100    0.0100
    0.0100    0.0100    0.0100    0.0100    0.0100    0.0100    0.0100    0.0100
    0.0100    0.0100    0.0100    0.0100    0.0100    0.0100    0.0100    0.0100
    0.0100    0.0100    0.0100    0.0100    0.0100    0.0100    0.0100    0.0100
    0.0100    0.0100    0.0100    0.0100    0.0100    0.0100    0.0100    0.0100
    0.0100    0.0100    0.0100    0.0100    0.0100    0.0100    0.0100    0.0100
    0.0100    0.0100    0.0100    0.0100    0.0100    0.0100    0.0100    0.0100
    0.0100    0.0100    0.0100    0.0100    0.0100    0.0100    0.0100    0.0100
    0.0100    0.0100    0.0100    0.0100    0.0100    0.0100    0.0100    0.0100
    0.0100    0.0100    0.0100    0.0100    0.0100    0.0100    0.0100    0.0100
    0.0100    0.0100    0.0100    0.0100    0.0100    0.0100    0.0100    0.0100
    0.0100    0.0100    0.0100    0.0100    0.0100    0.0100    0.0100    0.0100
    0.0100    0.0100    0.0100    0.0100    0.0100    0.0100    0.0100    0.0100
    0.0100    0.0100    0.0100    0.0100    0.0100    0.0100    0.0100    0.0100
    0.0100    0.0100    0.0100    0.0100    0.0100    0.0100    0.0100    0.0100
    0.0100    0.0100    0.0100    0.0100    0.0100    0.0100    0.0100    0.0100
    0.0100    0.0100    0.0100    0.0100    0.0100    0.0100    0.0100    0.0100
    0.0100    0.0100    0.0100    0.0100    0.0100    0.0100    0.0100    0.0100
    0.0100    0.0100    0.0100    0.0100    0.0100    0.0100    0.0100    0.0100
    0.0100    0.0100    0.0100    0.0100    0.0100    0.0100    0.0100    0.0100
    0.0100    0.0100    0.0100    0.0100    0.0100    0.0100    0.0100    0.0100
    0.0100    0.0100    0.0100    0.0100    0.0100    0.0100    0.0100    0.0100
    0.0100    0.0100    0.0100    0.0100    0.0100    0.0100    0.0100    0.0100
    0.0100    0.0100    0.0100    0.0100    0.0100    0.0100    0.0100    0.0100
    0.0100    0.0100    0.0100    0.0100    0.0100    0.0100    0.0100    0.0100
    0.0100    0.0100    0.0100    0.0100    0.0100    0.0100    0.0100    0.0100
    0.0100    0.0100    0.0100    0.0100    0.0100    0.0100    0.0100    0.0100
    0.0100    0.0100    0.0100    0.0100    0.0100    0.0100    0.0100    0.0100
    0.0100    0.0100    0.0100    0.0100    0.0100    0.0100    0.0100    0.0100
    0.0100    0.0100    0.0100    0.0100    0.0100    0.0100    0.0100    0.0100
    0.0100    0.0100    0.0100    0.0100    0.0100    0.0100    0.0100    0.0100
    0.0100    0.0100    0.0100    0.0100    0.0100    0.0100    0.0100    0.0100
    0.0100    0.0100    0.0100    0.0100    0.0100    0.0100    0.0100    0.0100
    0.0100    0.0100    0.0100    0.0100    0.0100    0.0100    0.0100    0.0100
    0.0100    0.0100    0.0100    0.0100    0.0100    0.0100    0.0100    0.0100
    0.0100    0.0100    0.0100    0.0100    0.0100    0.0100    0.0100    0.0100
    0.0100    0.0100    0.0100    0.0100    0.0100    0.0100    0.0100    0.0100
    0.0100    0.0100    0.0100    0.0100    0.0100    0.0100    0.0100    0.0100
    0.0100    0.0100    0.0100    0.0100    0.0100    0.0100    0.0100    0.0100
    0.0100    0.0100    0.0100    0.0100    0.0100    0.0100    0.0100    0.0100
    0.0100    0.0100    0.0100    0.0100    0.0100    0.0100    0.0100    0.0100
    0.0100    0.0100    0.0100    0.0100    0.0100    0.0100    0.0100    0.0100
    0.0100    0.0100    0.0100    0.0100    0.0100    0.0100    0.0100    0.0100
    0.0100    0.0100    0.0100    0.0100    0.0100    0.0100    0.0100    0.0100
    0.0100    0.0100    0.0100    0.0100    0.0100    0.0100    0.0100    0.0100
    0.0100    0.0100    0.0100    0.0100    0.0100    0.0100    0.0100    0.0100
    0.0100    0.0100    0.0100    0.0100    0.0100    0.0100    0.0100    0.0100
    0.0100    0.0100    0.0100    0.0100    0.0100    0.0100    0.0100    0.0100
    0.0100    0.0100    0.0100    0.0100    0.0100    0.0100    0.0100    0.0100
    0.0100    0.0100    0.0100    0.0100    0.0100    0.0100    0.0100    0.0100
    0.0100    0.0100    0.0100    0.0100    0.0100    0.0100    0.0100    0.0100
    0.0100    0.0100    0.0100    0.0100    0.0100    0.0100    0.0100    0.0100
    0.0100    0.0100    0.0100    0.0100    0.0100    0.0100    0.0100    0.0100
    0.0100    0.0100    0.0100    0.0100    0.0100    0.0100    0.0100    0.0100
    0.0100    0.0100    0.0100    0.0100    0.0100    0.0100    0.0100    0.0100
    0.0100    0.0100    0.0100    0.0100    0.0100    0.0100    0.0100    0.0100
    0.0100    0.0100    0.0100    0.0100    0.0100    0.0100    0.0100    0.0100
    0.0100    0.0100    0.0100    0.0100    0.0100    0.0100    0.0100    0.0100
    0.0100    0.0100    0.0100    0.0100    0.0100    0.0100    0.0100    0.0100
    0.0100    0.0100    0.0100    0.0100    0.0100    0.0100    0.0100    0.0100
    0.0100    0.0100    0.0100    0.0100    0.0100    0.0100    0.0100    0.0100
    0.0100    0.0100    0.0100    0.0100    0.0100    0.0100    0.0100    0.0100
    0.0100    0.0100    0.0100    0.0100    0.0100    0.0100    0.0100    0.0100
    0.0100    0.0100    0.0100    0.0100    0.0100    0.0100    0.0100    0.0100
    0.0100    0.0100    0.0100    0.0100    0.0100    0.0100    0.0100    0.0100
    0.0100    0.0100    0.0100    0.0100    0.0100    0.0100    0.0100    0.0100
    0.0100    0.0100    0.0100    0.0100    0.0100    0.0100    0.0100    0.0100
    0.0100    0.0100    0.0100    0.0100    0.0100    0.0100    0.0100    0.0100
    0.0100    0.0100    0.0100    0.0100    0.0100    0.0100    0.0100    0.0100
    0.0100    0.0100
   </PP_RAB>
 </PP_MESH>
  <PP_LOCAL type="real"  size=" 602" columns="4">
   -3.2574225747E+01   -3.2574560549E+01   -3.2576106294E+01   -3.2578159032E+01
   -3.2580014812E+01   -3.2580830907E+01   -3.2579729409E+01   -3.2575889053E+01
   -3.2568612728E+01   -3.2557365957E+01   -3.2541788348E+01   -3.2521684136E+01
   -3.2496999403E+01   -3.2467792989E+01   -3.2434206494E+01   -3.2396436869E+01
   -3.2354713407E+01   -3.2309279726E+01   -3.2260380501E+01   -3.2208252324E+01
   -3.2153117880E+01   -3.2095182631E+01   -3.2034633340E+01   -3.1971637825E+01
   -3.1906345519E+01   -3.1838888490E+01   -3.1769382723E+01   -3.1697929454E+01
   -3.1624616525E+01   -3.1549519640E+01   -3.1472703534E+01   -3.1394223018E+01
   -3.1314123927E+01   -3.1232443941E+01   -3.1149213329E+01   -3.1064455619E+01
   -3.0978188169E+01   -3.0890422722E+01   -3.0801165903E+01   -3.0710419666E+01
   -3.0618181756E+01   -3.0524446135E+01   -3.0429203410E+01   -3.0332441265E+01
   -3.0234144898E+01   -3.0134297465E+01   -3.0032880549E+01   -2.9929874631E+01
   -2.9825259583E+01   -2.9719015163E+01   -2.9611121532E+01   -2.9501559762E+01
   -2.9390312335E+01   -2.9277363677E+01   -2.9162700575E+01   -2.9046312711E+01
   -2.8928193008E+01   -2.8808338059E+01   -2.8686748414E+01   -2.8563428909E+01
   -2.8438388761E+01   -2.8311641905E+01   -2.8183206819E+01   -2.8053106775E+01
   -2.7921369672E+01   -2.7788027835E+01   -2.7653118043E+01   -2.7516681185E+01
   -2.7378761983E+01   -2.7239408667E+01   -2.7098672819E+01   -2.6956608846E+01
   -2.6813273683E+01   -2.6668726437E+01   -2.6523028019E+01   -2.6376240832E+01
   -2.6228428417E+01   -2.6079655134E+01   -2.5929985885E+01   -2.5779485846E+01
   -2.5628220237E+01   -2.5476254102E+01   -2.5323652131E+01   -2.5170478494E+01
   -2.5016796711E+01   -2.4862669533E+01   -2.4708158849E+01   -2.4553325612E+01
   -2.4398229779E+01   -2.4242930262E+01   -2.4087484895E+01   -2.3931950411E+01
   -2.3776382417E+01   -2.3620835391E+01   -2.3465362670E+01   -2.3310016446E+01
   -2.3154847794E+01   -2.2999906596E+01   -2.2845241589E+01   -2.2690900363E+01
   -2.2536929359E+01   -2.2383373855E+01   -2.2230277974E+01   -2.2077684736E+01
   -2.1925635832E+01   -2.1774171825E+01   -2.1623332073E+01   -2.1473154719E+01
   -2.1323676801E+01   -2.1174933850E+01   -2.1026960232E+01   -2.0879789031E+01
   -2.0733452153E+01   -2.0587979996E+01   -2.0443401586E+01   -2.0299744653E+01
   -2.0157035765E+01   -2.0015299731E+01   -1.9874560040E+01   -1.9734838918E+01
   -1.9596157219E+01   -1.9458533993E+01   -1.9321987092E+01   -1.9186533318E+01
   -1.9052187333E+01   -1.8918962747E+01   -1.8786872179E+01   -1.8655926207E+01
   -1.8526134352E+01   -1.8397505315E+01   -1.8270045770E+01   -1.8143761589E+01
   -1.8018657844E+01   -1.7894737768E+01   -1.7772004147E+01   -1.7650458741E+01
   -1.7530102063E+01   -1.7410934359E+01   -1.7292954651E+01   -1.7176161454E+01
   -1.7060552891E+01   -1.6946126090E+01   -1.6832878154E+01   -1.6720805457E+01
   -1.6609904112E+01   -1.6500170002E+01   -1.6391598486E+01   -1.6284184969E+01
   -1.6177924324E+01   -1.6072811405E+01   -1.5968840757E+01   -1.5866006647E+01
   -1.5764303267E+01   -1.5663724194E+01   -1.5564263207E+01   -1.5465913053E+01
   -1.5368666789E+01   -1.5272516292E+01   -1.5177453534E+01   -1.5083469356E+01
   -1.4990554292E+01   -1.4898697907E+01   -1.4807888943E+01   -1.4718115360E+01
   -1.4629363846E+01   -1.4541620126E+01   -1.4454869697E+01   -1.4369097497E+01
   -1.4284289297E+01   -1.4200430930E+01   -1.4117508699E+01   -1.4035508997E+01
   -1.3954418498E+01   -1.3874223959E+01   -1.3794912301E+01   -1.3716470527E+01
   -1.3638885734E+01   -1.3562145116E+01   -1.3486235915E+01   -1.3411145524E+01
   -1.3336861322E+01   -1.3263370983E+01   -1.3190662016E+01   -1.3118722513E+01
   -1.3047540127E+01   -1.2977103448E+01   -1.2907400522E+01   -1.2838420320E+01
   -1.2770151533E+01   -1.2702583458E+01   -1.2635705652E+01   -1.2569507666E+01
   -1.2503980090E+01   -1.2439112696E+01   -1.2374896975E+01   -1.2311323479E+01
   -1.2248383970E+01   -1.2186070088E+01   -1.2124373692E+01   -1.2063287440E+01
   -1.2002803328E+01   -1.1942914627E+01   -1.1883613996E+01   -1.1824894650E+01
   -1.1766749911E+01   -1.1709172988E+01   -1.1652157468E+01   -1.1595696774E+01
   -1.1539784410E+01   -1.1484413903E+01   -1.1429578746E+01   -1.1375272271E+01
   -1.1321488011E+01   -1.1268219112E+01   -1.1215458817E+01   -1.1163200367E+01
   -1.1111436654E+01   -1.1060160796E+01   -1.1009365679E+01   -1.0959044164E+01
   -1.0909189145E+01   -1.0859793554E+01   -1.0810850191E+01   -1.0762352078E+01
   -1.0714292478E+01   -1.0666664122E+01   -1.0619460840E+01   -1.0572676194E+01
   -1.0526303402E+01   -1.0480337211E+01   -1.0434771553E+01   -1.0389600739E+01
   -1.0344819778E+01   -1.0300423014E+01   -1.0256405550E+01   -1.0212762635E+01
   -1.0169488962E+01   -1.0126580263E+01   -1.0084032026E+01   -1.0041839513E+01
   -9.9999985773E+00   -9.9585048013E+00   -9.9173537151E+00   -9.8765413788E+00
   -9.8360635649E+00   -9.7959160957E+00   -9.7560951551E+00   -9.7165966800E+00
   -9.6774167118E+00   -9.6385515667E+00   -9.5999973103E+00   -9.5617501723E+00
   -9.5238066758E+00   -9.4861630727E+00   -9.4488157825E+00   -9.4117615108E+00
   -9.3749967226E+00   -9.3385179931E+00   -9.3023221507E+00   -9.2664058108E+00
   -9.2307656530E+00   -9.1953986953E+00   -9.1603017420E+00   -9.1254715723E+00
   -9.0909053595E+00   -9.0566000860E+00   -9.0225525980E+00   -8.9887602324E+00
   -8.9552201336E+00   -8.9219292546E+00   -8.8888850329E+00   -8.8560847648E+00
   -8.8235255797E+00   -8.7912049247E+00   -8.7591202699E+00   -8.7272689253E+00
   -8.6956483256E+00   -8.6642561124E+00   -8.6330897797E+00   -8.6021467330E+00
   -8.5714247800E+00   -8.5409215616E+00   -8.5106345596E+00   -8.4805616239E+00
   -8.4507005430E+00   -8.4210489799E+00   -8.3916047086E+00   -8.3623656936E+00
   -8.3333297853E+00   -8.3044946702E+00   -8.2758584792E+00   -8.2474191676E+00
   -8.2191745840E+00   -8.1911227628E+00   -8.1632618356E+00   -8.1355898393E+00
   -8.1081046829E+00   -8.0808046689E+00   -8.0536879388E+00   -8.0267525382E+00
   -7.9999966662E+00   -7.9734186344E+00   -7.9470166708E+00   -7.9207888447E+00
   -7.8947336124E+00   -7.8688492927E+00   -7.8431341396E+00   -7.8175864325E+00
   -7.7922046737E+00   -7.7669872525E+00   -7.7419324492E+00   -7.7170387537E+00
   -7.6923046876E+00   -7.6677287153E+00   -7.6433091533E+00   -7.6190446724E+00
   -7.5949338170E+00   -7.5709750921E+00   -7.5471669520E+00   -7.5235081257E+00
   -7.4999972176E+00   -7.4766327704E+00   -7.4534133802E+00   -7.4303378101E+00
   -7.4074047294E+00   -7.3846127249E+00   -7.3619605114E+00   -7.3394468897E+00
   -7.3170705912E+00   -7.2948302515E+00   -7.2727246825E+00   -7.2507527269E+00
   -7.2289131753E+00   -7.2072047164E+00   -7.1856262386E+00   -7.1641766313E+00
   -7.1428547412E+00   -7.1216593142E+00   -7.1005892959E+00   -7.0796436267E+00
   -7.0588212071E+00   -7.0381208435E+00   -7.0175415210E+00   -6.9970822349E+00
   -6.9767419372E+00   -6.9565194982E+00   -6.9364139256E+00   -6.9164242738E+00
   -6.8965495434E+00   -6.8767886726E+00   -6.8571406756E+00   -6.8376046693E+00
   -6.8181797008E+00   -6.7988647799E+00   -6.7796589125E+00   -6.7605612808E+00
   -6.7415709762E+00   -6.7226870832E+00   -6.7039085874E+00   -6.6852347372E+00
   -6.6666646665E+00   -6.6481975091E+00   -6.6298323054E+00   -6.6115682847E+00
   -6.5934046497E+00   -6.5753405746E+00   -6.5573751807E+00   -6.5395076438E+00
   -6.5217372440E+00   -6.5040631940E+00   -6.4864847004E+00   -6.4690008756E+00
   -6.4516110766E+00   -6.4343145525E+00   -6.4171105530E+00   -6.3999982574E+00
   -6.3829769608E+00   -6.3660459925E+00   -6.3492046367E+00   -6.3324521645E+00
   -6.3157877808E+00   -6.2992108994E+00   -6.2827208379E+00   -6.2663169141E+00
   -6.2499983832E+00   -6.2337645958E+00   -6.2176149485E+00   -6.2015487909E+00
   -6.1855654722E+00   -6.1696642414E+00   -6.1538445742E+00   -6.1381058537E+00
   -6.1224474596E+00   -6.1068687387E+00   -6.0913690414E+00   -6.0759478474E+00
   -6.0606045653E+00   -6.0453386038E+00   -6.0301493104E+00   -6.0150361302E+00
   -5.9999985403E+00   -5.9850359769E+00   -5.9701478763E+00   -5.9553335930E+00
   -5.9405926495E+00   -5.9259245251E+00   -5.9113286823E+00   -5.8968045829E+00
   -5.8823515965E+00   -5.8679693039E+00   -5.8536571927E+00   -5.8394147504E+00
   -5.8252414528E+00   -5.8111367203E+00   -5.7971001458E+00   -5.7831312406E+00
   -5.7692295163E+00   -5.7553944672E+00   -5.7416255508E+00   -5.7279223759E+00
   -5.7142844767E+00   -5.7007113873E+00   -5.6872026256E+00   -5.6737576726E+00
   -5.6603761572E+00   -5.6470576352E+00   -5.6338016626E+00   -5.6206077849E+00
   -5.6074754938E+00   -5.5944044426E+00   -5.5813942076E+00   -5.5684443656E+00
   -5.5555544930E+00   -5.5427240828E+00   -5.5299528140E+00   -5.5172402834E+00
   -5.5045860873E+00   -5.4919898220E+00   -5.4794510163E+00   -5.4669693328E+00
   -5.4545444028E+00   -5.4421758413E+00   -5.4298632635E+00   -5.4176062380E+00
   -5.4054044001E+00   -5.3932574190E+00   -5.3811649277E+00   -5.3691265592E+00
   -5.3571419260E+00   -5.3452106263E+00   -5.3333323698E+00   -5.3215068065E+00
   -5.3097335866E+00   -5.2980123602E+00   -5.2863427093E+00   -5.2747243569E+00
   -5.2631569789E+00   -5.2516402416E+00   -5.2401738116E+00   -5.2287573210E+00
   -5.2173904346E+00   -5.2060728770E+00   -5.1948043300E+00   -5.1835844757E+00
   -5.1724129962E+00   -5.1612895040E+00   -5.1502137597E+00   -5.1391854646E+00
   -5.1282043154E+00   -5.1172700090E+00   -5.1063822146E+00   -5.0955406160E+00
   -5.0847449696E+00   -5.0739949864E+00   -5.0632903774E+00   -5.0526308535E+00
   -5.0420160732E+00   -5.0314457906E+00   -5.0209197491E+00   -5.0104376730E+00
   -4.9999992867E+00   -4.9896043122E+00   -4.9792524105E+00   -4.9689433849E+00
   -4.9586769725E+00   -4.9484529107E+00   -4.9382709367E+00   -4.9281307697E+00
   -4.9180321180E+00   -4.9079747811E+00   -4.8979585084E+00   -4.8879830493E+00
   -4.8780481534E+00   -4.8681535420E+00   -4.8582989590E+00   -4.8484842040E+00
   -4.8387090381E+00   -4.8289732225E+00   -4.8192765184E+00   -4.8096186536E+00
   -4.7999993962E+00   -4.7904185503E+00   -4.7808758882E+00   -4.7713711822E+00
   -4.7619042046E+00   -4.7524746940E+00   -4.7430824318E+00   -4.7337272309E+00
   -4.7244088740E+00   -4.7151271442E+00   -4.7058818243E+00   -4.6966726677E+00
   -4.6874994589E+00   -4.6783620234E+00   -4.6692601542E+00   -4.6601936443E+00
   -4.6511622869E+00   -4.6421658535E+00   -4.6332041225E+00   -4.6242769357E+00
   -4.6153840957E+00   -4.6065254052E+00   -4.5977006669E+00   -4.5889096746E+00
   -4.5801521912E+00   -4.5714280783E+00   -4.5627371478E+00   -4.5540792115E+00
   -4.5454540812E+00   -4.5368615689E+00   -4.5283014364E+00   -4.5197735457E+00
   -4.5112777246E+00   -4.5028137940E+00   -4.4943815742E+00   -4.4859808861E+00
   -4.4776115205E+00   -4.4692733051E+00   -4.4609660957E+00   -4.4526897212E+00
   -4.4444440107E+00   -4.4362287932E+00   -4.4280438920E+00   -4.4198890934E+00
   -4.4117642832E+00   -4.4036692984E+00   -4.3956039759E+00   -4.3875681527E+00
   -4.3795616658E+00   -4.3715843199E+00   -4.3636359667E+00   -4.3557164726E+00
   -4.3478256820E+00   -4.3399634395E+00   -4.3321295896E+00   -4.3243239761E+00
   -4.3165463935E+00   -4.3087967443E+00   -4.3010748804E+00   -4.2933806535E+00
   -4.2857139154E+00   -4.2780745180E+00   -4.2704622946E+00   -4.2628770847E+00
   -4.2553187801E+00   -4.2477872393E+00   -4.2402823210E+00   -4.2328038840E+00
   -4.2253517870E+00   -4.2179258577E+00   -4.2105259704E+00   -4.2031520096E+00
   -4.1958038405E+00   -4.1884813286E+00   -4.1811843389E+00   -4.1739127369E+00
   -4.1666663491E+00   -4.1594450742E+00   -4.1522487939E+00   -4.1450773797E+00
   -4.1379307032E+00   -4.1308086359E+00   -4.1237110494E+00   -4.1166377729E+00
   -4.1095887203E+00   -4.1025637744E+00   -4.0955628127E+00   -4.0885857126E+00
   -4.0816323518E+00   -4.0747026078E+00   -4.0677963161E+00   -4.0609133970E+00
   -4.0540537381E+00   -4.0472172225E+00   -4.0404037335E+00   -4.0336131545E+00
   -4.0268453685E+00   -4.0201002210E+00   -4.0133776301E+00   -4.0066774919E+00
   -3.9999996951E+00   -3.9933441284E+00
  </PP_LOCAL>
 <PP_NONLOCAL>
   <PP_BETA.1
       type="real"
       size=" 602"
       columns="4"
       index="1"
       angular_momentum="0"
       cutoff_radius_index=" 250"
       cutoff_radius="    2.4900000000E+00" >
    0.0000000000E+00    6.4246228482E-02    1.2826320811E-01    1.9182247523E-01
    2.5469713387E-01    3.1666263313E-01    3.7749753658E-01    4.3698428133E-01
    4.9490992402E-01    5.5106687145E-01    6.0525359310E-01    6.5727531336E-01
    7.0694468100E-01    7.5408241358E-01    7.9851791463E-01    8.4008986145E-01
    8.7864676137E-01    9.1404747477E-01    9.4616170265E-01    9.7487043749E-01
    1.0000663747E+00    1.0216542854E+00    1.0395513458E+00    1.0536874251E+00
    1.0640053285E+00    1.0704609970E+00    1.0730236583E+00    1.0716759350E+00
    1.0664139029E+00    1.0572471029E+00    1.0441985061E+00    1.0273044296E+00
    1.0066144066E+00    9.8219100795E-01    9.5410961709E-01    9.2245816022E-01
    8.8733678792E-01    8.4885751540E-01    8.0714382197E-01    7.6233019721E-01
    7.1456166032E-01    6.6399323348E-01    6.1078937885E-01    5.5512340059E-01
    4.9717681361E-01    4.3713868133E-01    3.7520492491E-01    3.1157760660E-01
    2.4646420909E-01    1.8007682865E-01    1.1263142366E-01    4.4347041447E-02
   -2.4554997924E-02   -9.3851995649E-02   -1.6332052125E-01   -2.3273744827E-01
   -3.0188059259E-01   -3.7052966139E-01   -4.3846696991E-01   -5.0547836633E-01
   -5.7135379801E-01   -6.3588845448E-01   -6.9888304052E-01   -7.6014495804E-01
   -8.1948880301E-01   -8.7673686391E-01   -9.3172016928E-01   -9.8427886415E-01