<UPF version="2.0.1">
  <PP_INFO>

 Y_ONCV_PBE_FR-1.0.upf

 This pseudopotential file has been produced using the code
 ONCVPSP  (Optimized Norm-Conservinng Vanderbilt PSeudopotential)
 fully-relativistic version 2.1.1, 03/26/2014 by D. R. Hamann
 The code is available through a link at URL www.mat-simresearch.com.
 Documentation with the package provides a full description of the
 input data below.

 While it is not required under the terms of the GNU GPL, it is
 suggested that you cite D. R. Hamann, Phys. Rev. B 88, 085117 (2013)
 in any publication using these pseudopotentials.

 -----

 This pseudopotential was produced with the SG15 1.0 and/or 1.1
 parameter sets, the Schlipf-Gygi norm-conserving pseudopotential
 library. For details of the construction and testing of the
 pseudopotential please refer to:

 M. Schlipf, F. Gygi, Comp. Phys. Comm. 196, 36 (2015)
 http://dx.doi.org/10.1016/j.cpc.2015.05.011

 The above authors kindly ask that you include this reference in all
 publications associated to this pseudopotential.

 Please note this fully-relativistic version does not employ the
 above self-consistent procedure at the fully-relativistic level.

 -----

 This pseudopotential was produced by Peter Scherpelz for the purpose
 of performing GW calculations with spin-orbit-coupling. Please see
 the publication:

 P. Scherpelz, M. Govoni, I. Hamada, G. Galli; J. Chem. Theory Comput. (2016)
 http://dx.doi.org/10.1021/acs.jctc.6b00114

 If you use these pseudopotentials in your work, we also kindly ask
 that you cite the above publication.

 -----

 This work is licensed under the Creative Commons Attribution-ShareAlike 
 4.0 International License. To view a copy of this license, visit 
 http://creativecommons.org/licenses/by-sa/4.0/ or send a letter to 
 Creative Commons, PO Box 1866, Mountain View, CA 94042, USA.

 The SG15 library is Copyright 2015 The Regents of the University of
 California.  Further modifications of these files are Copyright 2016
 Peter Scherpelz.

    <PP_INPUTFILE>
# ATOM AND REFERENCE CONFIGURATION
# atsym  z    nc    nv    iexc   psfile
  Y 39.00     6     4     4      upf
#
#   n    l    f        energy (Ha)
    1    0    2.00
    2    0    2.00
    2    1    6.00
    3    0    2.00
    3    1    6.00
    3    2   10.00
    4    0    2.00
    4    1    6.00
    5    0    2.00
    4    2    1.00
#
# PSEUDOPOTENTIAL AND OPTIMIZATION
# lmax
    2
#
#   l,   rc,     ep,   ncon, nbas, qcut
    0    2.30   -1.76    5    8    5.63
    1    2.09   -1.01    5    8    6.34
    2    1.85   -0.09    5    8    7.02
#
# LOCAL POTENTIAL
# lloc, lpopt,  rc(5),   dvloc0
    4    5      1.74       0.00
#
# VANDERBILT-KLEINMAN-BYLANDER PROJECTORs
# l, nproj, debl
    0    2    1.6123
    1    2    1.5667
    2    2    1.3468
#
# MODEL CORE CHARGE
# icmod, fcfact
    0    0.00
#
# LOG DERIVATIVE ANALYSIS
# epsh1, epsh2, depsh
   -5.00    3.00    0.02
#
# OUTPUT GRID
# rlmax, drl
    6.00    0.01
#
# TEST CONFIGURATIONS
# ncnf
    0
# nvcnf
#   n    l    f
    </PP_INPUTFILE>
  </PP_INFO>
  <!--                               -->
  <!-- END OF HUMAN READABLE SECTION -->
  <!--                               -->
    <PP_HEADER
       generated="Generated using ONCVPSP code by D. R. Hamann"
       author="anonymous"
       date="150703"
       comment=""
       element="Y "
       pseudo_type="NC"
       relativistic="full"
       is_ultrasoft="F"
       is_paw="F"
       is_coulomb="F"
       has_so="T"
       has_wfc="F"
       has_gipaw="F"
       core_correction="F"
       functional="PBE"
       z_valence="   11.00"
       total_psenergy="  -3.84274212826E+01"
       rho_cutoff="   6.01000000000E+00"
       l_max="2"
       l_local="-1"
       mesh_size="   602"
       number_of_wfc="0"
       number_of_proj="10"/>
 <PP_MESH>
   <PP_R type="real"  size=" 602" columns="8">
    0.0000    0.0100    0.0200    0.0300    0.0400    0.0500    0.0600    0.0700
    0.0800    0.0900    0.1000    0.1100    0.1200    0.1300    0.1400    0.1500
    0.1600    0.1700    0.1800    0.1900    0.2000    0.2100    0.2200    0.2300
    0.2400    0.2500    0.2600    0.2700    0.2800    0.2900    0.3000    0.3100
    0.3200    0.3300    0.3400    0.3500    0.3600    0.3700    0.3800    0.3900
    0.4000    0.4100    0.4200    0.4300    0.4400    0.4500    0.4600    0.4700
    0.4800    0.4900    0.5000    0.5100    0.5200    0.5300    0.5400    0.5500
    0.5600    0.5700    0.5800    0.5900    0.6000    0.6100    0.6200    0.6300
    0.6400    0.6500    0.6600    0.6700    0.6800    0.6900    0.7000    0.7100
    0.7200    0.7300    0.7400    0.7500    0.7600    0.7700    0.7800    0.7900
    0.8000    0.8100    0.8200    0.8300    0.8400    0.8500    0.8600    0.8700
    0.8800    0.8900    0.9000    0.9100    0.9200    0.9300    0.9400    0.9500
    0.9600    0.9700    0.9800    0.9900    1.0000    1.0100    1.0200    1.0300
    1.0400    1.0500    1.0600    1.0700    1.0800    1.0900    1.1000    1.1100
    1.1200    1.1300    1.1400    1.1500    1.1600    1.1700    1.1800    1.1900
    1.2000    1.2100    1.2200    1.2300    1.2400    1.2500    1.2600    1.2700
    1.2800    1.2900    1.3000    1.3100    1.3200    1.3300    1.3400    1.3500
    1.3600    1.3700    1.3800    1.3900    1.4000    1.4100    1.4200    1.4300
    1.4400    1.4500    1.4600    1.4700    1.4800    1.4900    1.5000    1.5100
    1.5200    1.5300    1.5400    1.5500    1.5600    1.5700    1.5800    1.5900
    1.6000    1.6100    1.6200    1.6300    1.6400    1.6500    1.6600    1.6700
    1.6800    1.6900    1.7000    1.7100    1.7200    1.7300    1.7400    1.7500
    1.7600    1.7700    1.7800    1.7900    1.8000    1.8100    1.8200    1.8300
    1.8400    1.8500    1.8600    1.8700    1.8800    1.8900    1.9000    1.9100
    1.9200    1.9300    1.9400    1.9500    1.9600    1.9700    1.9800    1.9900
    2.0000    2.0100    2.0200    2.0300    2.0400    2.0500    2.0600    2.0700
    2.0800    2.0900    2.1000    2.1100    2.1200    2.1300    2.1400    2.1500
    2.1600    2.1700    2.1800    2.1900    2.2000    2.2100    2.2200    2.2300
    2.2400    2.2500    2.2600    2.2700    2.2800    2.2900    2.3000    2.3100
    2.3200    2.3300    2.3400    2.3500    2.3600    2.3700    2.3800    2.3900
    2.4000    2.4100    2.4200    2.4300    2.4400    2.4500    2.4600    2.4700
    2.4800    2.4900    2.5000    2.5100    2.5200    2.5300    2.5400    2.5500
    2.5600    2.5700    2.5800    2.5900    2.6000    2.6100    2.6200    2.6300
    2.6400    2.6500    2.6600    2.6700    2.6800    2.6900    2.7000    2.7100
    2.7200    2.7300    2.7400    2.7500    2.7600    2.7700    2.7800    2.7900
    2.8000    2.8100    2.8200    2.8300    2.8400    2.8500    2.8600    2.8700
    2.8800    2.8900    2.9000    2.9100    2.9200    2.9300    2.9400    2.9500
    2.9600    2.9700    2.9800    2.9900    3.0000    3.0100    3.0200    3.0300
    3.0400    3.0500    3.0600    3.0700    3.0800    3.0900    3.1000    3.1100
    3.1200    3.1300    3.1400    3.1500    3.1600    3.1700    3.1800    3.1900
    3.2000    3.2100    3.2200    3.2300    3.2400    3.2500    3.2600    3.2700
    3.2800    3.2900    3.3000    3.3100    3.3200    3.3300    3.3400    3.3500
    3.3600    3.3700    3.3800    3.3900    3.4000    3.4100    3.4200    3.4300
    3.4400    3.4500    3.4600    3.4700    3.4800    3.4900    3.5000    3.5100
    3.5200    3.5300    3.5400    3.5500    3.5600    3.5700    3.5800    3.5900
    3.6000    3.6100    3.6200    3.6300    3.6400    3.6500    3.6600    3.6700
    3.6800    3.6900    3.7000    3.7100    3.7200    3.7300    3.7400    3.7500
    3.7600    3.7700    3.7800    3.7900    3.8000    3.8100    3.8200    3.8300
    3.8400    3.8500    3.8600    3.8700    3.8800    3.8900    3.9000    3.9100
    3.9200    3.9300    3.9400    3.9500    3.9600    3.9700    3.9800    3.9900
    4.0000    4.0100    4.0200    4.0300    4.0400    4.0500    4.0600    4.0700
    4.0800    4.0900    4.1000    4.1100    4.1200    4.1300    4.1400    4.1500
    4.1600    4.1700    4.1800    4.1900    4.2000    4.2100    4.2200    4.2300
    4.2400    4.2500    4.2600    4.2700    4.2800    4.2900    4.3000    4.3100
    4.3200    4.3300    4.3400    4.3500    4.3600    4.3700    4.3800    4.3900
    4.4000    4.4100    4.4200    4.4300    4.4400    4.4500    4.4600    4.4700
    4.4800    4.4900    4.5000    4.5100    4.5200    4.5300    4.5400    4.5500
    4.5600    4.5700    4.5800    4.5900    4.6000    4.6100    4.6200    4.6300
    4.6400    4.6500    4.6600    4.6700    4.6800    4.6900    4.7000    4.7100
    4.7200    4.7300    4.7400    4.7500    4.7600    4.7700    4.7800    4.7900
    4.8000    4.8100    4.8200    4.8300    4.8400    4.8500    4.8600    4.8700
    4.8800    4.8900    4.9000    4.9100    4.9200    4.9300    4.9400    4.9500
    4.9600    4.9700    4.9800    4.9900    5.0000    5.0100    5.0200    5.0300
    5.0400    5.0500    5.0600    5.0700    5.0800    5.0900    5.1000    5.1100
    5.1200    5.1300    5.1400    5.1500    5.1600    5.1700    5.1800    5.1900
    5.2000    5.2100    5.2200    5.2300    5.2400    5.2500    5.2600    5.2700
    5.2800    5.2900    5.3000    5.3100    5.3200    5.3300    5.3400    5.3500
    5.3600    5.3700    5.3800    5.3900    5.4000    5.4100    5.4200    5.4300
    5.4400    5.4500    5.4600    5.4700    5.4800    5.4900    5.5000    5.5100
    5.5200    5.5300    5.5400    5.5500    5.5600    5.5700    5.5800    5.5900
    5.6000    5.6100    5.6200    5.6300    5.6400    5.6500    5.6600    5.6700
    5.6800    5.6900    5.7000    5.7100    5.7200    5.7300    5.7400    5.7500
    5.7600    5.7700    5.7800    5.7900    5.8000    5.8100    5.8200    5.8300
    5.8400    5.8500    5.8600    5.8700    5.8800    5.8900    5.9000    5.9100
    5.9200    5.9300    5.9400    5.9500    5.9600    5.9700    5.9800    5.9900
    6.0000    6.0100
   </PP_R>
   <PP_RAB type="real"  size=" 602" columns="8">
    0.0100    0.0100    0.0100    0.0100    0.0100    0.0100    0.0100    0.0100
    0.0100    0.0100    0.0100    0.0100    0.0100    0.0100    0.0100    0.0100
    0.0100    0.0100    0.0100    0.0100    0.0100    0.0100    0.0100    0.0100
    0.0100    0.0100    0.0100    0.0100    0.0100    0.0100    0.0100    0.0100
    0.0100    0.0100    0.0100    0.0100    0.0100    0.0100    0.0100    0.0100
    0.0100    0.0100    0.0100    0.0100    0.0100    0.0100    0.0100    0.0100
    0.0100    0.0100    0.0100    0.0100    0.0100    0.0100    0.0100    0.0100
    0.0100    0.0100    0.0100    0.0100    0.0100    0.0100    0.0100    0.0100
    0.0100    0.0100    0.0100    0.0100    0.0100    0.0100    0.0100    0.0100
    0.0100    0.0100    0.0100    0.0100    0.0100    0.0100    0.0100    0.0100
    0.0100    0.0100    0.0100    0.0100    0.0100    0.0100    0.0100    0.0100
    0.0100    0.0100    0.0100    0.0100    0.0100    0.0100    0.0100    0.0100
    0.0100    0.0100    0.0100    0.0100    0.0100    0.0100    0.0100    0.0100
    0.0100    0.0100    0.0100    0.0100    0.0100    0.0100    0.0100    0.0100
    0.0100    0.0100    0.0100    0.0100    0.0100    0.0100    0.0100    0.0100
    0.0100    0.0100    0.0100    0.0100    0.0100    0.0100    0.0100    0.0100
    0.0100    0.0100    0.0100    0.0100    0.0100    0.0100    0.0100    0.0100
    0.0100    0.0100    0.0100    0.0100    0.0100    0.0100    0.0100    0.0100
    0.0100    0.0100    0.0100    0.0100    0.0100    0.0100    0.0100    0.0100
    0.0100    0.0100    0.0100    0.0100    0.0100    0.0100    0.0100    0.0100
    0.0100    0.0100    0.0100    0.0100    0.0100    0.0100    0.0100    0.0100
    0.0100    0.0100    0.0100    0.0100    0.0100    0.0100    0.0100    0.0100
    0.0100    0.0100    0.0100    0.0100    0.0100    0.0100    0.0100    0.0100
    0.0100    0.0100    0.0100    0.0100    0.0100    0.0100    0.0100    0.0100
    0.0100    0.0100    0.0100    0.0100    0.0100    0.0100    0.0100    0.0100
    0.0100    0.0100    0.0100    0.0100    0.0100    0.0100    0.0100    0.0100
    0.0100    0.0100    0.0100    0.0100    0.0100    0.0100    0.0100    0.0100
    0.0100    0.0100    0.0100    0.0100    0.0100    0.0100    0.0100    0.0100
    0.0100    0.0100    0.0100    0.0100    0.0100    0.0100    0.0100    0.0100
    0.0100    0.0100    0.0100    0.0100    0.0100    0.0100    0.0100    0.0100
    0.0100    0.0100    0.0100    0.0100    0.0100    0.0100    0.0100    0.0100
    0.0100    0.0100    0.0100    0.0100    0.0100    0.0100    0.0100    0.0100
    0.0100    0.0100    0.0100    0.0100    0.0100    0.0100    0.0100    0.0100
    0.0100    0.0100    0.0100    0.0100    0.0100    0.0100    0.0100    0.0100
    0.0100    0.0100    0.0100    0.0100    0.0100    0.0100    0.0100    0.0100
    0.0100    0.0100    0.0100    0.0100    0.0100    0.0100    0.0100    0.0100
    0.0100    0.0100    0.0100    0.0100    0.0100    0.0100    0.0100    0.0100
    0.0100    0.0100    0.0100    0.0100    0.0100    0.0100    0.0100    0.0100
    0.0100    0.0100    0.0100    0.0100    0.0100    0.0100    0.0100    0.0100
    0.0100    0.0100    0.0100    0.0100    0.0100    0.0100    0.0100    0.0100
    0.0100    0.0100    0.0100    0.0100    0.0100    0.0100    0.0100    0.0100
    0.0100    0.0100    0.0100    0.0100    0.0100    0.0100    0.0100    0.0100
    0.0100    0.0100    0.0100    0.0100    0.0100    0.0100    0.0100    0.0100
    0.0100    0.0100    0.0100    0.0100    0.0100    0.0100    0.0100    0.0100
    0.0100    0.0100    0.0100    0.0100    0.0100    0.0100    0.0100    0.0100
    0.0100    0.0100    0.0100    0.0100    0.0100    0.0100    0.0100    0.0100
    0.0100    0.0100    0.0100    0.0100    0.0100    0.0100    0.0100    0.0100
    0.0100    0.0100    0.0100    0.0100    0.0100    0.0100    0.0100    0.0100
    0.0100    0.0100    0.0100    0.0100    0.0100    0.0100    0.0100    0.0100
    0.0100    0.0100    0.0100    0.0100    0.0100    0.0100    0.0100    0.0100
    0.0100    0.0100    0.0100    0.0100    0.0100    0.0100    0.0100    0.0100
    0.0100    0.0100    0.0100    0.0100    0.0100    0.0100    0.0100    0.0100
    0.0100    0.0100    0.0100    0.0100    0.0100    0.0100    0.0100    0.0100
    0.0100    0.0100    0.0100    0.0100    0.0100    0.0100    0.0100    0.0100
    0.0100    0.0100    0.0100    0.0100    0.0100    0.0100    0.0100    0.0100
    0.0100    0.0100    0.0100    0.0100    0.0100    0.0100    0.0100    0.0100
    0.0100    0.0100    0.0100    0.0100    0.0100    0.0100    0.0100    0.0100
    0.0100    0.0100    0.0100    0.0100    0.0100    0.0100    0.0100    0.0100
    0.0100    0.0100    0.0100    0.0100    0.0100    0.0100    0.0100    0.0100
    0.0100    0.0100    0.0100    0.0100    0.0100    0.0100    0.0100    0.0100
    0.0100    0.0100    0.0100    0.0100    0.0100    0.0100    0.0100    0.0100
    0.0100    0.0100    0.0100    0.0100    0.0100    0.0100    0.0100    0.0100
    0.0100    0.0100    0.0100    0.0100    0.0100    0.0100    0.0100    0.0100
    0.0100    0.0100    0.0100    0.0100    0.0100    0.0100    0.0100    0.0100
    0.0100    0.0100    0.0100    0.0100    0.0100    0.0100    0.0100    0.0100
    0.0100    0.0100    0.0100    0.0100    0.0100    0.0100    0.0100    0.0100
    0.0100    0.0100    0.0100    0.0100    0.0100    0.0100    0.0100    0.0100
    0.0100    0.0100    0.0100    0.0100    0.0100    0.0100    0.0100    0.0100
    0.0100    0.0100    0.0100    0.0100    0.0100    0.0100    0.0100    0.0100
    0.0100    0.0100    0.0100    0.0100    0.0100    0.0100    0.0100    0.0100
    0.0100    0.0100    0.0100    0.0100    0.0100    0.0100    0.0100    0.0100
    0.0100    0.0100    0.0100    0.0100    0.0100    0.0100    0.0100    0.0100
    0.0100    0.0100    0.0100    0.0100    0.0100    0.0100    0.0100    0.0100
    0.0100    0.0100    0.0100    0.0100    0.0100    0.0100    0.0100    0.0100
    0.0100    0.0100    0.0100    0.0100    0.0100    0.0100    0.0100    0.0100
    0.0100    0.0100
   </PP_RAB>
 </PP_MESH>
  <PP_LOCAL type="real"  size=" 602" columns="4">
   -2.7965381111E+01   -2.7969224987E+01   -2.7982447069E+01   -2.8002591320E+01
   -2.8027201699E+01   -2.8053482276E+01   -2.8078709720E+01   -2.8100546350E+01
   -2.8117215892E+01   -2.8127549473E+01   -2.8130936414E+01   -2.8127221497E+01
   -2.8116584302E+01   -2.8099424602E+01   -2.8076266497E+01   -2.8047685507E+01
   -2.8014257658E+01   -2.7976527063E+01   -2.7934987766E+01   -2.7890075791E+01
   -2.7842168056E+01   -2.7791585454E+01   -2.7738598304E+01   -2.7683432762E+01
   -2.7626277410E+01   -2.7567289454E+01   -2.7506600335E+01   -2.7444320533E+01
   -2.7380543656E+01   -2.7315349775E+01   -2.7248808127E+01   -2.7180979260E+01
   -2.7111916710E+01   -2.7041668295E+01   -2.6970277099E+01   -2.6897782231E+01
   -2.6824219368E+01   -2.6749621175E+01   -2.6674017620E+01   -2.6597436186E+01
   -2.6519902047E+01   -2.6441438197E+01   -2.6362065544E+01   -2.6281802987E+01
   -2.6200667482E+01   -2.6118674097E+01   -2.6035836060E+01   -2.5952164814E+01
   -2.5867670062E+01   -2.5782359812E+01   -2.5696240430E+01   -2.5609316709E+01
   -2.5521591920E+01   -2.5433067868E+01   -2.5343745003E+01   -2.5253622458E+01
   -2.5162698179E+01   -2.5070969003E+01   -2.4978430789E+01   -2.4885078521E+01
   -2.4790906469E+01   -2.4695908304E+01   -2.4600077282E+01   -2.4503406387E+01
   -2.4405888514E+01   -2.4307516645E+01   -2.4208284032E+01   -2.4108184390E+01
   -2.4007212071E+01   -2.3905362231E+01   -2.3802631061E+01   -2.3699015911E+01
   -2.3594515455E+01   -2.3489129844E+01   -2.3382860818E+01   -2.3275711853E+01
   -2.3167688248E+01   -2.3058797181E+01   -2.2949047771E+01   -2.2838451117E+01
   -2.2727020309E+01   -2.2614770424E+01   -2.2501718498E+01   -2.2387883490E+01
   -2.2273286215E+01   -2.2157949283E+01   -2.2041897002E+01   -2.1925155296E+01
   -2.1807751593E+01   -2.1689714721E+01   -2.1571074799E+01   -2.1451863115E+01
   -2.1332112021E+01   -2.1211854810E+01   -2.1091125613E+01   -2.0969959289E+01
   -2.0848391309E+01   -2.0726457699E+01   -2.0604194911E+01   -2.0481639742E+01
   -2.0358829255E+01   -2.0235800709E+01   -2.0112591483E+01   -1.9989239026E+01
   -1.9865780785E+01   -1.9742254150E+01   -1.9618696406E+01   -1.9495144689E+01
   -1.9371635974E+01   -1.9248206952E+01   -1.9124894057E+01   -1.9001733419E+01
   -1.8878760863E+01   -1.8756011790E+01   -1.8633521177E+01   -1.8511323580E+01
   -1.8389453166E+01   -1.8267943465E+01   -1.8146827497E+01   -1.8026137783E+01
   -1.7905906272E+01   -1.7786164120E+01   -1.7666941918E+01   -1.7548269765E+01
   -1.7430176676E+01   -1.7312691074E+01   -1.7195840853E+01   -1.7079652687E+01
   -1.6964152556E+01   -1.6849365923E+01   -1.6735316804E+01   -1.6622028562E+01
   -1.6509523949E+01   -1.6397824092E+01   -1.6286949640E+01   -1.6176920240E+01
   -1.6067754064E+01   -1.5959468962E+01   -1.5852081124E+01   -1.5745605845E+01
   -1.5640057850E+01   -1.5535449859E+01   -1.5431794492E+01   -1.5329102613E+01
   -1.5227384185E+01   -1.5126648541E+01   -1.5026902997E+01   -1.4928155071E+01
   -1.4830409946E+01   -1.4733672725E+01   -1.4637947035E+01   -1.4543235450E+01
   -1.4449540078E+01   -1.4356861080E+01   -1.4265199052E+01   -1.4174552016E+01
   -1.4084918710E+01   -1.3996295550E+01   -1.3908679266E+01   -1.3822064847E+01
   -1.3736447107E+01   -1.3651819649E+01   -1.3568175504E+01   -1.3485506925E+01
   -1.3403805287E+01   -1.3323061511E+01   -1.3243265428E+01   -1.3164406636E+01
   -1.3086473514E+01   -1.3009454327E+01   -1.2933336069E+01   -1.2858105642E+01
   -1.2783748704E+01   -1.2710250683E+01   -1.2637596017E+01   -1.2565768305E+01
   -1.2494751499E+01   -1.2424529165E+01   -1.2355085593E+01   -1.2286406172E+01
   -1.2218476092E+01   -1.2151282254E+01   -1.2084810727E+01   -1.2019049748E+01
   -1.1953986247E+01   -1.1889609471E+01   -1.1825907559E+01   -1.1762870251E+01
   -1.1700486955E+01   -1.1638747793E+01   -1.1577643323E+01   -1.1517163992E+01
   -1.1457301283E+01   -1.1398045990E+01   -1.1339390111E+01   -1.1281325038E+01
   -1.1223842871E+01   -1.1166935685E+01   -1.1110595624E+01   -1.1054815224E+01
   -1.0999586722E+01   -1.0944902878E+01   -1.0890756219E+01   -1.0837139460E+01
   -1.0784045366E+01   -1.0731466656E+01   -1.0679396166E+01   -1.0627826614E+01
   -1.0576750937E+01   -1.0526161925E+01   -1.0476052467E+01   -1.0426416210E+01
   -1.0377246194E+01   -1.0328536328E+01   -1.0280280397E+01   -1.0232472129E+01
   -1.0185105634E+01   -1.0138174674E+01   -1.0091673522E+01   -1.0045596483E+01
   -9.9999376444E+00   -9.9546916991E+00   -9.9098530047E+00   -9.8654161435E+00
   -9.8213759529E+00   -9.7777269456E+00   -9.7344641570E+00   -9.6915825208E+00
   -9.6490768210E+00   -9.6069424052E+00   -9.5651743081E+00   -9.5237677178E+00
   -9.4827181384E+00   -9.4420207485E+00   -9.4016711297E+00   -9.3616649552E+00
   -9.3219975732E+00   -9.2826649442E+00   -9.2436628933E+00   -9.2049870365E+00
   -9.1666335542E+00   -9.1285983735E+00   -9.0908773626E+00   -9.0534668904E+00
   -9.0163630539E+00   -8.9795619892E+00   -8.9430602064E+00   -8.9068539615E+00
   -8.8709396121E+00   -8.8353138208E+00   -8.7999730069E+00   -8.7649137199E+00
   -8.7301327725E+00   -8.6956267465E+00   -8.6613923542E+00   -8.6274265581E+00
   -8.5937261035E+00   -8.5602878369E+00   -8.5271088715E+00   -8.4941861161E+00
   -8.4615165257E+00   -8.4290973638E+00   -8.3969257034E+00   -8.3649985844E+00
   -8.3333134198E+00   -8.3018674473E+00   -8.2706577704E+00   -8.2396819498E+00
   -8.2089373684E+00   -8.1784212356E+00   -8.1481311959E+00   -8.1180647740E+00
   -8.0882193411E+00   -8.0585925504E+00   -8.0291820857E+00   -7.9999854839E+00
   -7.9710003867E+00   -7.9422246350E+00   -7.9136559345E+00   -7.8852919002E+00
   -7.8571305253E+00   -7.8291696470E+00   -7.8014069597E+00   -7.7738404860E+00
   -7.7464682016E+00   -7.7192879673E+00   -7.6922977360E+00   -7.6654956450E+00
   -7.6388797266E+00   -7.6124478543E+00   -7.5861983174E+00   -7.5601292419E+00
   -7.5342386586E+00   -7.5085247598E+00   -7.4829858359E+00   -7.4576200905E+00
   -7.4324256013E+00   -7.4074008150E+00   -7.3825440285E+00   -7.3578534535E+00
   -7.3333274332E+00   -7.3089644232E+00   -7.2847627999E+00   -7.2607207960E+00
   -7.2368369912E+00   -7.2131098479E+00   -7.1895377683E+00   -7.1661191701E+00
   -7.1428526832E+00   -7.1197368318E+00   -7.0967700426E+00   -7.0739509257E+00
   -7.0512781292E+00   -7.0287502460E+00   -7.0063657356E+00   -6.9841233743E+00
   -6.9620218309E+00   -6.9400597382E+00   -6.9182356740E+00   -6.8965484760E+00
   -6.8749968653E+00   -6.8535795090E+00   -6.8322951149E+00   -6.8111425521E+00
   -6.7901206012E+00   -6.7692279694E+00   -6.7484634735E+00   -6.7278260171E+00
   -6.7073144376E+00   -6.6869274870E+00   -6.6666640710E+00   -6.6465231316E+00
   -6.6265035605E+00   -6.6066041582E+00   -6.5868239007E+00   -6.5671617725E+00
   -6.5476167170E+00   -6.5281875868E+00   -6.5088734107E+00   -6.4896732197E+00
   -6.4705860063E+00   -6.4516106789E+00   -6.4327463022E+00   -6.4139919577E+00
   -6.3953466850E+00   -6.3768094511E+00   -6.3583793413E+00   -6.3400554914E+00
   -6.3218369854E+00   -6.3037228526E+00   -6.2857121843E+00   -6.2678041735E+00
   -6.2499979469E+00   -6.2322925990E+00   -6.2146872143E+00   -6.1971810449E+00
   -6.1797732583E+00   -6.1624630178E+00   -6.1452493888E+00   -6.1281316845E+00
   -6.1111091111E+00   -6.0941808748E+00   -6.0773460981E+00   -6.0606040699E+00
   -6.0439540616E+00   -6.0273953165E+00   -6.0109270314E+00   -5.9945484461E+00
   -5.9782589029E+00   -5.9620576802E+00   -5.9459440532E+00   -5.9299172037E+00
   -5.9139765442E+00   -5.8981213867E+00   -5.8823510434E+00   -5.8666647642E+00
   -5.8510618986E+00   -5.8355418337E+00   -5.8201039136E+00   -5.8047474724E+00
   -5.7894717769E+00   -5.7742762917E+00   -5.7591603914E+00   -5.7441234507E+00
   -5.7291647891E+00   -5.7142838069E+00   -5.6994799530E+00   -5.6847526313E+00
   -5.6701012455E+00   -5.6555251091E+00   -5.6410237372E+00   -5.6265965663E+00
   -5.6122430281E+00   -5.5979625259E+00   -5.5837544600E+00   -5.5696183553E+00
   -5.5555536699E+00   -5.5415598619E+00   -5.5276363351E+00   -5.5137825768E+00
   -5.4999981094E+00   -5.4862824165E+00   -5.4726349812E+00   -5.4590552140E+00
   -5.4455426728E+00   -5.4320968825E+00   -5.4187173504E+00   -5.4054035840E+00
   -5.3921550051E+00   -5.3789712276E+00   -5.3658517830E+00   -5.3527962017E+00
   -5.3398040052E+00   -5.3268746582E+00   -5.3140077892E+00   -5.3012029505E+00
   -5.2884596944E+00   -5.2757775593E+00   -5.2631560440E+00   -5.2505947917E+00
   -5.2380933755E+00   -5.2256513685E+00   -5.2132683306E+00   -5.2009437821E+00
   -5.1886773847E+00   -5.1764687313E+00   -5.1643174151E+00   -5.1522230211E+00
   -5.1401850798E+00   -5.1282032750E+00   -5.1162772185E+00   -5.1044065223E+00
   -5.0925907984E+00   -5.0808295835E+00   -5.0691225796E+00   -5.0574694192E+00
   -5.0458697322E+00   -5.0343231487E+00   -5.0228292384E+00   -5.0113876883E+00
   -4.9999981622E+00   -4.9886603074E+00   -4.9773737711E+00   -4.9661381598E+00
   -4.9549531354E+00   -4.9438183963E+00   -4.9327336063E+00   -4.9216984291E+00
   -4.9107125111E+00   -4.8997754806E+00   -4.8888870729E+00   -4.8780469675E+00
   -4.8672548436E+00   -4.8565103808E+00   -4.8458131973E+00   -4.8351630357E+00
   -4.8245596007E+00   -4.8140025865E+00   -4.8034916874E+00   -4.7930265682E+00
   -4.7826069177E+00   -4.7722324853E+00   -4.7619029795E+00   -4.7516181088E+00
   -4.7413775818E+00   -4.7311810451E+00   -4.7210282756E+00   -4.7109190012E+00
   -4.7008529441E+00   -4.6908298264E+00   -4.6808493466E+00   -4.6709112113E+00
   -4.6610151990E+00   -4.6511610447E+00   -4.6413484835E+00   -4.6315772506E+00
   -4.6218470345E+00   -4.6121576064E+00   -4.6025087326E+00   -4.5929001605E+00
   -4.5833316377E+00   -4.5738029108E+00   -4.5643136659E+00   -4.5548637241E+00
   -4.5454528445E+00   -4.5360807864E+00   -4.5267473089E+00   -4.5174521564E+00
   -4.5081950581E+00   -4.4989758317E+00   -4.4897942475E+00   -4.4806500761E+00
   -4.4715430877E+00   -4.4624730286E+00   -4.4534396607E+00   -4.4444428018E+00
   -4.4354822330E+00   -4.4265577355E+00   -4.4176690904E+00   -4.4088160498E+00
   -4.3999983977E+00   -4.3912159563E+00   -4.3824685167E+00   -4.3737558704E+00
   -4.3650778086E+00   -4.3564340934E+00   -4.3478245210E+00   -4.3392489214E+00
   -4.3307070957E+00   -4.3221988450E+00   -4.3137239701E+00   -4.3052822467E+00
   -4.2968734739E+00   -4.2884974933E+00   -4.2801541153E+00   -4.2718431502E+00
   -4.2635644082E+00   -4.2553176817E+00   -4.2471027642E+00   -4.2389195122E+00
   -4.2307677449E+00   -4.2226472814E+00   -4.2145579409E+00   -4.2064995359E+00
   -4.1984718460E+00   -4.1904747457E+00   -4.1825080627E+00   -4.1745716244E+00
   -4.1666652585E+00   -4.1587887925E+00   -4.1509420096E+00   -4.1431247801E+00
   -4.1353369480E+00   -4.1275783487E+00   -4.1198488178E+00   -4.1121481911E+00
   -4.1044762783E+00   -4.0968329184E+00   -4.0892179806E+00   -4.0816313083E+00
   -4.0740727447E+00   -4.0665421330E+00   -4.0590393129E+00   -4.0515640854E+00
   -4.0441163474E+00   -4.0366959493E+00   -4.0293027417E+00   -4.0219365752E+00
   -4.0145973003E+00   -4.0072847396E+00   -3.9999987541E+00   -3.9927392228E+00
   -3.9855060030E+00   -3.9782989524E+00   -3.9711179284E+00   -3.9639627887E+00
   -3.9568333438E+00   -3.9497295039E+00   -3.9426511338E+00   -3.9355980977E+00
   -3.9285702597E+00   -3.9215674840E+00   -3.9145896194E+00   -3.9076365157E+00
   -3.9007080751E+00   -3.8938041681E+00   -3.8869246651E+00   -3.8800694366E+00
   -3.8732383531E+00   -3.8664312582E+00   -3.8596480336E+00   -3.8528885750E+00
   -3.8461527588E+00   -3.8394404617E+00   -3.8327515600E+00   -3.8260859304E+00
   -3.8194434151E+00   -3.8128239187E+00   -3.8062273339E+00   -3.7996535430E+00
   -3.7931024283E+00   -3.7865738721E+00   -3.7800677567E+00   -3.7735839268E+00
   -3.7671223008E+00   -3.7606827725E+00   -3.7542652297E+00   -3.7478695601E+00
   -3.7414956515E+00   -3.7351433916E+00   -3.7288126310E+00   -3.7225032939E+00
   -3.7162152785E+00   -3.7099484779E+00   -3.7037027850E+00   -3.6974780928E+00
   -3.6912742944E+00   -3.6850912491E+00   -3.6789288794E+00   -3.6727870913E+00
   -3.6666657827E+00   -3.6605648517E+00
  </PP_LOCAL>
 <PP_NONLOCAL>
   <PP_BETA.1
       type="real"
       size=" 602"
       columns="4"
       index="1"
       angular_momentum="0"
       cutoff_radius_index=" 234"
       cutoff_radius="    2.3300000000E+00" >
    0.0000000000E+00   -6.5708697911E-03   -1.3087652481E-02   -1.9496667436E-02
   -2.5745044664E-02   -3.1781124415E-02   -3.7554849949E-02   -4.3018151249E-02
   -4.8125317491E-02   -5.2833356171E-02   -5.7102336799E-02   -6.0895717219E-02
   -6.4180650636E-02   -6.6928271578E-02   -6.9113959077E-02   -7.0717575554E-02
   -7.1723679863E-02   -7.2121713310E-02   -7.1906157308E-02   -7.1076661856E-02
   -6.9638143554E-02   -6.7600853121E-02   -6.4980410951E-02   -6.1797811091E-02
   -5.8079392889E-02   -5.3856780641E-02   -4.9166790876E-02   -4.4051307924E-02
   -3.8557128078E-02   -3.2735772934E-02   -2.6643272606E-02   -2.0339919786E-02
   -1.3889996689E-02   -7.3614734205E-03   -8.2568139956E-04    5.6430325742E-03
    1.1967684587E-02    1.8069041897E-02    2.3866029351E-02    2.9276168248E-02
    3.4216008493E-02    3.8601583995E-02    4.2348876375E-02    4.5374285619E-02
    4.7595105641E-02    4.8930002319E-02    4.9299491402E-02    4.8626413466E-02
    4.6836388596E-02    4.3858316717E-02    3.9624803898E-02    3.4072588365E-02
    2.7142976257E-02    1.8782296040E-02    8.9421721264E-03   -2.4199706805E-03
   -1.5340689448E-02   -2.9850122433E-02   -4.5971766721E-02   -6.3722147837E-02
   -8.3110717688E-02   -1.0413947360E-01   -1.2680303233E-01   -1.5108830363E-01
   -1.7697449753E-01   -2.0443314081E-01   -2.3342791878E-01   -2.6391479113E-01