 
             +---------------------------------------------------+
             |                                                   |
             |                   WANNIER90                       |
             |                                                   |
             +---------------------------------------------------+
             |                                                   |
             |        Welcome to the Maximally-Localized         |
             |        Generalized Wannier Functions code         |
             |            http://www.wannier.org                 |
             |                                                   |
             |                                                   |
             |  Wannier90 Developer Group:                       |
             |    Giovanni Pizzi    (EPFL)                       |
             |    Valerio Vitale    (Cambridge)                  |
             |    David Vanderbilt  (Rutgers University)         |
             |    Nicola Marzari    (EPFL)                       |
             |    Ivo Souza         (Universidad del Pais Vasco) |
             |    Arash A. Mostofi  (Imperial College London)    |
             |    Jonathan R. Yates (University of Oxford)       |
             |                                                   |
             |  For the full list of Wannier90 3.x authors,      |
             |  please check the code documentation and the      |
             |  README on the GitHub page of the code            |
             |                                                   |
             |                                                   |
             |  Please cite                                      |
             |                                                   |
             |  [ref] "Wannier90 as a community code:            |
             |        new features and applications",            |
             |        G. Pizzi et al., J. Phys. Cond. Matt. 32,  |
             |        165902 (2020).                             |
             |        http://doi.org/10.1088/1361-648X/ab51ff    |
             |                                                   |
             |  in any publications arising from the use of      |
             |  this code. For the method please cite            |
             |                                                   |
             |  [ref] "Maximally Localized Generalised Wannier   |
             |         Functions for Composite Energy Bands"     |
             |         N. Marzari and D. Vanderbilt              |
             |         Phys. Rev. B 56 12847 (1997)              |
             |                                                   |
             |  [ref] "Maximally Localized Wannier Functions     |
             |         for Entangled Energy Bands"               |
             |         I. Souza, N. Marzari and D. Vanderbilt    |
             |         Phys. Rev. B 65 035109 (2001)             |
             |                                                   |
             |                                                   |
             | Copyright (c) 1996-2020                           |
             |        The Wannier90 Developer Group and          |
             |        individual contributors                    |
             |                                                   |
             |      Release: 3.1.0        5th March    2020      |
             |                                                   |
             | This program is free software; you can            |
             | redistribute it and/or modify it under the terms  |
             | of the GNU General Public License as published by |
             | the Free Software Foundation; either version 2 of |
             | the License, or (at your option) any later version|
             |                                                   |
             | This program is distributed in the hope that it   |
             | will be useful, but WITHOUT ANY WARRANTY; without |
             | even the implied warranty of MERCHANTABILITY or   |
             | FITNESS FOR A PARTICULAR PURPOSE. See the GNU     |
             | General Public License for more details.          |
             |                                                   |
             | You should have received a copy of the GNU General|
             | Public License along with this program; if not,   |
             | write to the Free Software Foundation, Inc.,      |
             | 675 Mass Ave, Cambridge, MA 02139, USA.           |
             |                                                   |
             +---------------------------------------------------+
             |    Execution started on 22Jun2022 at 13:02:06     |
             +---------------------------------------------------+
 
 ******************************************************************************
 * -> Using CODATA 2006 constant values                                       *
 *    (http://physics.nist.gov/cuu/Constants/index.html)                      *
 * -> Using Bohr value from CODATA                                            *
 ******************************************************************************
 

 Running in serial (with serial executable)
 
                                    ------
                                    SYSTEM
                                    ------
 
                              Lattice Vectors (Ang)
                    a_1     6.606800   0.000000   0.000000
                    a_2     0.000000   6.892900   0.000000
                    a_3     0.000000   0.000000   6.254400
 
                   Unit Cell Volume:     284.82545  (Ang^3)
 
                        Reciprocal-Space Vectors (Ang^-1)
                    b_1     0.951018   0.000000   0.000000
                    b_2     0.000000   0.911545   0.000000
                    b_3     0.000000   0.000000   1.004602
  
 *----------------------------------------------------------------------------*
 |   Site       Fractional Coordinate          Cartesian Coordinate (Ang)     |
 +----------------------------------------------------------------------------+
 | O    1   0.45408   0.45252   0.53697   |    3.00000   3.11915   3.35845    |
 | H    1   0.49606   0.58206   0.57765   |    3.27740   4.01205   3.61285    |
 | H    2   0.54592   0.41794   0.42235   |    3.60680   2.88085   2.64155    |
 *----------------------------------------------------------------------------*
                                ------------
                                K-POINT GRID
                                ------------
  
             Grid size =  1 x  1 x  1      Total points =    1
  
  
 *---------------------------------- MAIN ------------------------------------*
 |  Number of Wannier Functions               :                 2             |
 |  Number of Objective Wannier Functions     :                 2             |
 |  Number of input Bloch states              :                 8             |
 |  Output verbosity (1=low, 5=high)          :                 1             |
 |  Timing Level (1=low, 5=high)              :                 1             |
 |  Optimisation (0=memory, 3=speed)          :                 3             |
 |  Length Unit                               :               Ang             |
 |  Post-processing setup (write *.nnkp)      :                 F             |
 |  Using Gamma-only branch of algorithms     :                 F             |
 *----------------------------------------------------------------------------*
 *------------------------------- WANNIERISE ---------------------------------*
 |  Total number of iterations                :             10000             |
 |  Number of CG steps before reset           :                 5             |
 |  Trial step length for line search         :             2.000             |
 |  Convergence tolerence                     :         0.100E-09             |
 |  Convergence window                        :                 5             |
 |  Iterations between writing output         :                 1             |
 |  Iterations between backing up to disk     :               100             |
 |  Write r^2_nm to file                      :                 F             |
 |  Write xyz WF centres to file              :                 F             |
 |  Write on-site energies <0n|H|0n> to file  :                 F             |
 |  Use guiding centre to control phases      :                 T             |
 |  Use phases for initial projections        :                 F             |
 |  Iterations before starting guiding centres:                 0             |
 |  Iterations between using guiding centres  :                 1             |
 *----------------------------------------------------------------------------*
 *------------------------------- DISENTANGLE --------------------------------*
 |  Using band disentanglement                :                 T             |
 |  Total number of iterations                :              5000             |
 |  Mixing ratio                              :             0.500             |
 |  Convergence tolerence                     :         1.000E-10             |
 |  Convergence window                        :                 3             |
 *----------------------------------------------------------------------------*
 *-------------------------------- PLOTTING ----------------------------------*
 |  Plotting interpolated bandstructure       :                 T             |
 |   Number of K-path sections                :                 1             |
 |   Divisions along first K-path section     :               100             |
 |   Output format                            :           gnuplot             |
 |   Output mode                              :               s-k             |
 *----------------------------------------------------------------------------*
 |   K-space path sections:                                                   |
 |    From: G       0.000  0.000  0.000     To: X       0.000  0.000  0.500   |
 *----------------------------------------------------------------------------*
 |  Plotting Hamiltonian in WF basis          :                 T             |
 *----------------------------------------------------------------------------*
 Time to read parameters        0.002 (sec)

 *---------------------------------- K-MESH ----------------------------------*
 +----------------------------------------------------------------------------+
 |                    Distance to Nearest-Neighbour Shells                    |
 |                    ------------------------------------                    |
 |          Shell             Distance (Ang^-1)          Multiplicity         |
 |          -----             -----------------          ------------         |
 |             1                   0.911545                      2            |
 |             2                   0.951018                      2            |
 |             3                   1.004602                      2            |
 |             4                   1.317326                      4            |
 |             5                   1.356517                      4            |
 |             6                   1.383351                      4            |
 |             7                   1.656676                      8            |
 |             8                   1.823089                      2            |
 |             9                   1.902036                      2            |
 |            10                   2.009205                      2            |
 |            11                   2.056232                      4            |
 |            12                   2.081557                      4            |
 |            13                   2.109183                      4            |
 |            14                   2.151038                      4            |
 |            15                   2.206313                      4            |
 |            16                   2.222912                      4            |
 |            17                   2.288518                      8            |
 |            18                   2.336211                      8            |
 |            19                   2.402551                      8            |
 |            20                   2.634653                      4            |
 |            21                   2.713035                      4            |
 |            22                   2.734634                      2            |
 |            23                   2.766703                      4            |
 |            24                   2.819684                      8            |
 |            25                   2.853054                      2            |
 |            26                   2.874890                      8            |
 |            27                   2.895282                      4            |
 |            28                   2.912998                      8            |
 |            29                   2.913322                      4            |
 |            30                   2.995134                      4            |
 |            31                   3.013807                      2            |
 |            32                   3.024755                      4            |
 |            33                   3.064618                      8            |
 |            34                   3.148642                      4            |
 |            35                   3.159123                      8            |
 |            36                   3.160296                      4            |
 +----------------------------------------------------------------------------+
 | The b-vectors are chosen automatically                                     |
 | The following shells are used:   1,  2,  3                                 |
 +----------------------------------------------------------------------------+
 |                        Shell   # Nearest-Neighbours                        |
 |                        -----   --------------------                        |
 |                          1               2                                 |
 |                          2               2                                 |
 |                          3               2                                 |
 +----------------------------------------------------------------------------+
 | Completeness relation is fully satisfied [Eq. (B1), PRB 56, 12847 (1997)]  |
 +----------------------------------------------------------------------------+
 |                  b_k Vectors (Ang^-1) and Weights (Ang^2)                  |
 |                  ----------------------------------------                  |
 |            No.         b_k(x)      b_k(y)      b_k(z)        w_b           |
 |            ---        --------------------------------     --------        |
 |             1         0.000000    0.911545    0.000000     0.601747        |
 |             2         0.000000   -0.911545    0.000000     0.601747        |
 |             3         0.951018    0.000000    0.000000     0.552831        |
 |             4        -0.951018    0.000000    0.000000     0.552831        |
 |             5         0.000000    0.000000    1.004602     0.495429        |
 |             6         0.000000    0.000000   -1.004602     0.495429        |
 +----------------------------------------------------------------------------+
 |                           b_k Directions (Ang^-1)                          |
 |                           -----------------------                          |
 |            No.           x           y           z                         |
 |            ---        --------------------------------                     |
 |             1         0.000000    0.911545    0.000000                     |
 |             2         0.951018    0.000000    0.000000                     |
 |             3         0.000000    0.000000    1.004602                     |
 +----------------------------------------------------------------------------+
  
 Time to get kmesh              0.004 (sec)
 *============================================================================*
 |                              MEMORY ESTIMATE                               |
 |         Maximum RAM allocated during each phase of the calculation         |
 *============================================================================*
 |                        Disentanglement            0.01 Mb                  |
 |                            Wannierise:            0.00 Mb                  |
 |                          plot_wannier:            0.00 Mb                  |
 *----------------------------------------------------------------------------*
  
 Starting a new Wannier90 calculation ...


 Reading overlaps from wann.mmn    :  Created on 22Jun2022 at 13: 2: 6

 Reading projections from wann.amn :  Created on 22Jun2022 at 13: 2: 6

 Time to read overlaps          0.000 (sec)

 *------------------------------- DISENTANGLE --------------------------------*
 +----------------------------------------------------------------------------+
 |                              Energy  Windows                               |
 |                              ---------------                               |
 |                   Outer:   -1.07777  to    4.63343  (eV)                   |
 |                   Inner:   -1.07777  to    2.00000  (eV)                   |
 +----------------------------------------------------------------------------+
   Number of target bands to extract:    2

                   Unitarised projection of Wannier functions                  
                   ------------------------------------------                  
   A_mn = <psi_m|g_n> --> S = A.A^+ --> U = S^-1/2.A
   In dis_project... done
   Using an inner window (linner = T)
   In dis_proj_froz... done

                   Extraction of optimally-connected subspace                  
                   ------------------------------------------                  
 +---------------------------------------------------------------------+<-- DIS
 |  Iter     Omega_I(i-1)      Omega_I(i)      Delta (frac.)    Time   |<-- DIS
 +---------------------------------------------------------------------+<-- DIS
       1       4.82495121       4.82495121       4.441E-16      0.00    <-- DIS
       2       4.82495121       4.82495121       4.441E-16      0.00    <-- DIS
       3       4.82495121       4.82495121       4.441E-16      0.00    <-- DIS

             <<<      Delta < 1.000E-10  over  3 iterations     >>>
             <<< Disentanglement convergence criteria satisfied >>>

        Final Omega_I     4.82495121 (Ang^2)

 +----------------------------------------------------------------------------+

 Time to disentangle bands      0.000 (sec)

 Writing checkpoint file wann.chk... done

 
 *------------------------------- WANNIERISE ---------------------------------*
 +--------------------------------------------------------------------+<-- CONV
 | Iter  Delta Spread     RMS Gradient      Spread (Ang^2)      Time  |<-- CONV
 +--------------------------------------------------------------------+<-- CONV
 
 ------------------------------------------------------------------------------
 Initial State
  WF centre and spread    1  (  3.278936,  5.099691,  3.776226 )     2.37678872
  WF centre and spread    2  (  4.260490,  2.509342,  1.926655 )     2.46367511
  Sum of centres and spreads (  7.539426,  7.609033,  5.702881 )     4.84046383
 
      0     0.484E+01     0.0000000000        4.8404638266       0.00  <-- CONV
        O_D=      0.0000000 O_OD=      0.0155126 O_TOT=      4.8404638 <-- SPRD
 ------------------------------------------------------------------------------
 Cycle:      1
  WF centre and spread    1  (  3.279555, -1.793210, -2.478924 )     2.37569350
  WF centre and spread    2  ( -2.345001,  2.509523,  1.925108 )     2.46459275
  Sum of centres and spreads (  0.934555,  0.716313, -0.553816 )     4.84028625
 
      1    -0.178E-03     0.0402580296        4.8402862463       0.00  <-- CONV
        O_D=      0.0000000 O_OD=      0.0153350 O_TOT=      4.8402862 <-- SPRD
 Delta: O_D=  0.8627375E-31 O_OD= -0.1775804E-03 O_TOT= -0.1775804E-03 <-- DLTA
 ------------------------------------------------------------------------------
 Cycle:      2
  WF centre and spread    1  (  3.279555, -1.793210, -2.478924 )     2.37569359
  WF centre and spread    2  ( -2.345001,  2.509523,  1.925108 )     2.46459266
  Sum of centres and spreads (  0.934554,  0.716313, -0.553816 )     4.84028625
 
      2    -0.140E-11     0.0000035774        4.8402862463       0.00  <-- CONV
        O_D=      0.0000000 O_OD=      0.0153350 O_TOT=      4.8402862 <-- SPRD
 Delta: O_D= -0.1072413E-30 O_OD= -0.1402036E-11 O_TOT= -0.1402434E-11 <-- DLTA
 ------------------------------------------------------------------------------
 Cycle:      3
  WF centre and spread    1  (  3.279555, -1.793210, -2.478924 )     2.37569359
  WF centre and spread    2  ( -2.345001,  2.509523,  1.925108 )     2.46459266
  Sum of centres and spreads (  0.934554,  0.716313, -0.553816 )     4.84028625
 
      3     0.000E+00     0.0000000013        4.8402862463       0.00  <-- CONV
        O_D=      0.0000000 O_OD=      0.0153350 O_TOT=      4.8402862 <-- SPRD
 Delta: O_D=  0.1805210E-30 O_OD=  0.1734723E-16 O_TOT=  0.0000000E+00 <-- DLTA
 ------------------------------------------------------------------------------
 Cycle:      4
  WF centre and spread    1  (  3.279555, -1.793210, -2.478924 )     2.37569359
  WF centre and spread    2  ( -2.345001,  2.509523,  1.925108 )     2.46459266
  Sum of centres and spreads (  0.934554,  0.716313, -0.553816 )     4.84028625
 
      4     0.000E+00     0.0000000004        4.8402862463       0.00  <-- CONV
        O_D=      0.0000000 O_OD=      0.0153350 O_TOT=      4.8402862 <-- SPRD
 Delta: O_D= -0.1823064E-30 O_OD= -0.3469447E-17 O_TOT=  0.0000000E+00 <-- DLTA
 ------------------------------------------------------------------------------
 Cycle:      5
  WF centre and spread    1  (  3.279555, -1.793210, -2.478924 )     2.37569359
  WF centre and spread    2  ( -2.345001,  2.509523,  1.925108 )     2.46459266
  Sum of centres and spreads (  0.934554,  0.716313, -0.553816 )     4.84028625
 
      5     0.000E+00     0.0000000001        4.8402862463       0.00  <-- CONV
        O_D=      0.0000000 O_OD=      0.0153350 O_TOT=      4.8402862 <-- SPRD
 Delta: O_D=  0.3708008E-30 O_OD= -0.1040834E-16 O_TOT=  0.0000000E+00 <-- DLTA
 ------------------------------------------------------------------------------
 Cycle:      6
  WF centre and spread    1  (  3.279555, -1.793210, -2.478924 )     2.37569359
  WF centre and spread    2  ( -2.345001,  2.509523,  1.925108 )     2.46459266
  Sum of centres and spreads (  0.934554,  0.716313, -0.553816 )     4.84028625
 
      6     0.000E+00     0.0000000000        4.8402862463       0.00  <-- CONV
        O_D=      0.0000000 O_OD=      0.0153350 O_TOT=      4.8402862 <-- SPRD
 Delta: O_D= -0.5644277E-30 O_OD= -0.1734723E-16 O_TOT=  0.0000000E+00 <-- DLTA
 ------------------------------------------------------------------------------

             <<<     Delta < 1.000E-10  over  5 iterations     >>>
             <<< Wannierisation convergence criteria satisfied >>>

 Final State
  WF centre and spread    1  (  3.279555, -1.793210, -2.478924 )     2.37569359
  WF centre and spread    2  ( -2.345001,  2.509523,  1.925108 )     2.46459266
  Sum of centres and spreads (  0.934554,  0.716313, -0.553816 )     4.84028625
 
         Spreads (Ang^2)       Omega I      =     4.824951212
        ================       Omega D      =     0.000000000
                               Omega OD     =     0.015335034
    Final Spread (Ang^2)       Omega Total  =     4.840286246
 ------------------------------------------------------------------------------
 Time for wannierise            0.000 (sec)

 Writing checkpoint file wann.chk... done

 *---------------------------------------------------------------------------*
 |                               PLOTTING                                    |
 *---------------------------------------------------------------------------*
 
 
 Calculating interpolated band-structure
 
 Time to calculate interpolated band structure       0.001 (sec)
 
 Time for plotting              0.002 (sec)
 Total Execution Time           0.010 (sec)

 *===========================================================================*
 |                             TIMING INFORMATION                            |
 *===========================================================================*
 |    Tag                                                Ncalls      Time (s)|
 |---------------------------------------------------------------------------|
 |kmesh: get                                        :         1         0.004|
 |overlap: allocate                                 :         1         0.000|
 |overlap: read                                     :         1         0.000|
 |dis: main                                         :         1         0.000|
 |wann: main                                        :         1         0.000|
 |plot: main                                        :         1         0.002|
 *---------------------------------------------------------------------------*
 
 All done: wannier90 exiting
