 written on 20Jun2022 at 14:00:31 
           2
           1
    1
    0    0    0    1    1    0.379442    0.000000
    0    0    0    2    1   -1.443570    0.000000
    0    0    0    1    2   -1.443570   -0.000000
    0    0    0    2    2    0.352237   -0.000000
