 written on 21Jun2022 at 21:58:39 
           2
           1
    1
    0    0    0    1    1    0.379316    0.000000
    0    0    0    2    1   -1.443459    0.000000
    0    0    0    1    2   -1.443459   -0.000000
    0    0    0    2    2    0.352184   -0.000000
