 
             +---------------------------------------------------+
             |                                                   |
             |                   WANNIER90                       |
             |                                                   |
             +---------------------------------------------------+
             |                                                   |
             |        Welcome to the Maximally-Localized         |
             |        Generalized Wannier Functions code         |
             |            http://www.wannier.org                 |
             |                                                   |
             |                                                   |
             |  Wannier90 Developer Group:                       |
             |    Giovanni Pizzi    (EPFL)                       |
             |    Valerio Vitale    (Cambridge)                  |
             |    David Vanderbilt  (Rutgers University)         |
             |    Nicola Marzari    (EPFL)                       |
             |    Ivo Souza         (Universidad del Pais Vasco) |
             |    Arash A. Mostofi  (Imperial College London)    |
             |    Jonathan R. Yates (University of Oxford)       |
             |                                                   |
             |  For the full list of Wannier90 3.x authors,      |
             |  please check the code documentation and the      |
             |  README on the GitHub page of the code            |
             |                                                   |
             |                                                   |
             |  Please cite                                      |
             |                                                   |
             |  [ref] "Wannier90 as a community code:            |
             |        new features and applications",            |
             |        G. Pizzi et al., J. Phys. Cond. Matt. 32,  |
             |        165902 (2020).                             |
             |        http://doi.org/10.1088/1361-648X/ab51ff    |
             |                                                   |
             |  in any publications arising from the use of      |
             |  this code. For the method please cite            |
             |                                                   |
             |  [ref] "Maximally Localized Generalised Wannier   |
             |         Functions for Composite Energy Bands"     |
             |         N. Marzari and D. Vanderbilt              |
             |         Phys. Rev. B 56 12847 (1997)              |
             |                                                   |
             |  [ref] "Maximally Localized Wannier Functions     |
             |         for Entangled Energy Bands"               |
             |         I. Souza, N. Marzari and D. Vanderbilt    |
             |         Phys. Rev. B 65 035109 (2001)             |
             |                                                   |
             |                                                   |
             | Copyright (c) 1996-2020                           |
             |        The Wannier90 Developer Group and          |
             |        individual contributors                    |
             |                                                   |
             |      Release: 3.1.0        5th March    2020      |
             |                                                   |
             | This program is free software; you can            |
             | redistribute it and/or modify it under the terms  |
             | of the GNU General Public License as published by |
             | the Free Software Foundation; either version 2 of |
             | the License, or (at your option) any later version|
             |                                                   |
             | This program is distributed in the hope that it   |
             | will be useful, but WITHOUT ANY WARRANTY; without |
             | even the implied warranty of MERCHANTABILITY or   |
             | FITNESS FOR A PARTICULAR PURPOSE. See the GNU     |
             | General Public License for more details.          |
             |                                                   |
             | You should have received a copy of the GNU General|
             | Public License along with this program; if not,   |
             | write to the Free Software Foundation, Inc.,      |
             | 675 Mass Ave, Cambridge, MA 02139, USA.           |
             |                                                   |
             +---------------------------------------------------+
             |    Execution started on 17Jun2022 at 11:19:09     |
             +---------------------------------------------------+
 
 ******************************************************************************
 * -> Using CODATA 2006 constant values                                       *
 *    (http://physics.nist.gov/cuu/Constants/index.html)                      *
 * -> Using Bohr value from CODATA                                            *
 ******************************************************************************
 

 Running in serial (with serial executable)
 
                                    ------
                                    SYSTEM
                                    ------
 
                              Lattice Vectors (Ang)
                    a_1     6.606800   0.000000   0.000000
                    a_2     0.000000   6.892900   0.000000
                    a_3     0.000000   0.000000   6.254400
 
                   Unit Cell Volume:     284.82545  (Ang^3)
 
                        Reciprocal-Space Vectors (Ang^-1)
                    b_1     0.951018   0.000000   0.000000
                    b_2     0.000000   0.911545   0.000000
                    b_3     0.000000   0.000000   1.004602
  
 *----------------------------------------------------------------------------*
 |   Site       Fractional Coordinate          Cartesian Coordinate (Ang)     |
 +----------------------------------------------------------------------------+
 | O    1   0.45408   0.45252   0.53697   |    3.00000   3.11915   3.35845    |
 | H    1   0.49606   0.58206   0.57765   |    3.27740   4.01205   3.61285    |
 | H    2   0.54592   0.41794   0.42235   |    3.60680   2.88085   2.64155    |
 *----------------------------------------------------------------------------*
                                ------------
                                K-POINT GRID
                                ------------
  
             Grid size =  1 x  1 x  1      Total points =    1
  
  
 *---------------------------------- MAIN ------------------------------------*
 |  Number of Wannier Functions               :                 2             |
 |  Number of Objective Wannier Functions     :                 2             |
 |  Number of input Bloch states              :                 8             |
 |  Output verbosity (1=low, 5=high)          :                 1             |
 |  Timing Level (1=low, 5=high)              :                 1             |
 |  Optimisation (0=memory, 3=speed)          :                 3             |
 |  Length Unit                               :               Ang             |
 |  Post-processing setup (write *.nnkp)      :                 F             |
 |  Using Gamma-only branch of algorithms     :                 F             |
 *----------------------------------------------------------------------------*
 *------------------------------- WANNIERISE ---------------------------------*
 |  Total number of iterations                :             10000             |
 |  Number of CG steps before reset           :                 5             |
 |  Trial step length for line search         :             2.000             |
 |  Convergence tolerence                     :         0.100E-09             |
 |  Convergence window                        :                 5             |
 |  Iterations between writing output         :                 1             |
 |  Iterations between backing up to disk     :               100             |
 |  Write r^2_nm to file                      :                 F             |
 |  Write xyz WF centres to file              :                 F             |
 |  Write on-site energies <0n|H|0n> to file  :                 F             |
 |  Use guiding centre to control phases      :                 T             |
 |  Use phases for initial projections        :                 F             |
 |  Iterations before starting guiding centres:                 0             |
 |  Iterations between using guiding centres  :                 1             |
 *----------------------------------------------------------------------------*
 *------------------------------- DISENTANGLE --------------------------------*
 |  Using band disentanglement                :                 T             |
 |  Total number of iterations                :              5000             |
 |  Mixing ratio                              :             0.500             |
 |  Convergence tolerence                     :         1.000E-10             |
 |  Convergence window                        :                 3             |
 *----------------------------------------------------------------------------*
 *-------------------------------- PLOTTING ----------------------------------*
 |  Plotting interpolated bandstructure       :                 T             |
 |   Number of K-path sections                :                 1             |
 |   Divisions along first K-path section     :               100             |
 |   Output format                            :           gnuplot             |
 |   Output mode                              :               s-k             |
 *----------------------------------------------------------------------------*
 |   K-space path sections:                                                   |
 |    From: G       0.000  0.000  0.000     To: X       0.000  0.000  0.500   |
 *----------------------------------------------------------------------------*
 |  Plotting Hamiltonian in WF basis          :                 T             |
 *----------------------------------------------------------------------------*
 Time to read parameters        0.002 (sec)

 *---------------------------------- K-MESH ----------------------------------*
 +----------------------------------------------------------------------------+
 |                    Distance to Nearest-Neighbour Shells                    |
 |                    ------------------------------------                    |
 |          Shell             Distance (Ang^-1)          Multiplicity         |
 |          -----             -----------------          ------------         |
 |             1                   0.911545                      2            |
 |             2                   0.951018                      2            |
 |             3                   1.004602                      2            |
 |             4                   1.317326                      4            |
 |             5                   1.356517                      4            |
 |             6                   1.383351                      4            |
 |             7                   1.656676                      8            |
 |             8                   1.823089                      2            |
 |             9                   1.902036                      2            |
 |            10                   2.009205                      2            |
 |            11                   2.056232                      4            |
 |            12                   2.081557                      4            |
 |            13                   2.109183                      4            |
 |            14                   2.151038                      4            |
 |            15                   2.206313                      4            |
 |            16                   2.222912                      4            |
 |            17                   2.288518                      8            |
 |            18                   2.336211                      8            |
 |            19                   2.402551                      8            |
 |            20                   2.634653                      4            |
 |            21                   2.713035                      4            |
 |            22                   2.734634                      2            |
 |            23                   2.766703                      4            |
 |            24                   2.819684                      8            |
 |            25                   2.853054                      2            |
 |            26                   2.874890                      8            |
 |            27                   2.895282                      4            |
 |            28                   2.912998                      8            |
 |            29                   2.913322                      4            |
 |            30                   2.995134                      4            |
 |            31                   3.013807                      2            |
 |            32                   3.024755                      4            |
 |            33                   3.064618                      8            |
 |            34                   3.148642                      4            |
 |            35                   3.159123                      8            |
 |            36                   3.160296                      4            |
 +----------------------------------------------------------------------------+
 | The b-vectors are chosen automatically                                     |
 | The following shells are used:   1,  2,  3                                 |
 +----------------------------------------------------------------------------+
 |                        Shell   # Nearest-Neighbours                        |
 |                        -----   --------------------                        |
 |                          1               2                                 |
 |                          2               2                                 |
 |                          3               2                                 |
 +----------------------------------------------------------------------------+
 | Completeness relation is fully satisfied [Eq. (B1), PRB 56, 12847 (1997)]  |
 +----------------------------------------------------------------------------+
 |                  b_k Vectors (Ang^-1) and Weights (Ang^2)                  |
 |                  ----------------------------------------                  |
 |            No.         b_k(x)      b_k(y)      b_k(z)        w_b           |
 |            ---        --------------------------------     --------        |
 |             1         0.000000    0.911545    0.000000     0.601747        |
 |             2         0.000000   -0.911545    0.000000     0.601747        |
 |             3         0.951018    0.000000    0.000000     0.552831        |
 |             4        -0.951018    0.000000    0.000000     0.552831        |
 |             5         0.000000    0.000000    1.004602     0.495429        |
 |             6         0.000000    0.000000   -1.004602     0.495429        |
 +----------------------------------------------------------------------------+
 |                           b_k Directions (Ang^-1)                          |
 |                           -----------------------                          |
 |            No.           x           y           z                         |
 |            ---        --------------------------------                     |
 |             1         0.000000    0.911545    0.000000                     |
 |             2         0.951018    0.000000    0.000000                     |
 |             3         0.000000    0.000000    1.004602                     |
 +----------------------------------------------------------------------------+
  
 Time to get kmesh              0.005 (sec)
 *============================================================================*
 |                              MEMORY ESTIMATE                               |
 |         Maximum RAM allocated during each phase of the calculation         |
 *============================================================================*
 |                        Disentanglement            0.01 Mb                  |
 |                            Wannierise:            0.00 Mb                  |
 |                          plot_wannier:            0.00 Mb                  |
 *----------------------------------------------------------------------------*
  
 Starting a new Wannier90 calculation ...


 Reading overlaps from wann.mmn    :  Created on 17Jun2022 at 11:19: 9

 Reading projections from wann.amn :  Created on 17Jun2022 at 11:19: 9

 Time to read overlaps          0.000 (sec)

 *------------------------------- DISENTANGLE --------------------------------*
 +----------------------------------------------------------------------------+
 |                              Energy  Windows                               |
 |                              ---------------                               |
 |                   Outer:   -1.07683  to    4.63953  (eV)                   |
 |                   Inner:   -1.07683  to    0.50000  (eV)                   |
 +----------------------------------------------------------------------------+
   Number of target bands to extract:    2

                   Unitarised projection of Wannier functions                  
                   ------------------------------------------                  
   A_mn = <psi_m|g_n> --> S = A.A^+ --> U = S^-1/2.A
   In dis_project... done
   Using an inner window (linner = T)
   In dis_proj_froz... done

                   Extraction of optimally-connected subspace                  
                   ------------------------------------------                  
 +---------------------------------------------------------------------+<-- DIS
 |  Iter     Omega_I(i-1)      Omega_I(i)      Delta (frac.)    Time   |<-- DIS
 +---------------------------------------------------------------------+<-- DIS
       1       4.62056979       4.58968075       6.730E-03      0.00    <-- DIS
       2       4.55883308       4.58745524      -6.239E-03      0.00    <-- DIS
       3       4.57732458       4.58694968      -2.098E-03      0.00    <-- DIS
       4       4.58414408       4.58683171      -5.859E-04      0.00    <-- DIS
       5       4.58640065       4.58680070      -8.722E-05      0.00    <-- DIS
       6       4.58701042       4.58679121       4.779E-05      0.00    <-- DIS
       7       4.58708602       4.58678789       6.500E-05      0.00    <-- DIS
       8       4.58702224       4.58678664       5.137E-05      0.00    <-- DIS
       9       4.58694480       4.58678614       3.459E-05      0.00    <-- DIS
      10       4.58688525       4.58678593       2.165E-05      0.00    <-- DIS
      11       4.58684570       4.58678585       1.305E-05      0.00    <-- DIS
      12       4.58682119       4.58678581       7.712E-06      0.00    <-- DIS
      13       4.58680653       4.58678580       4.520E-06      0.00    <-- DIS
      14       4.58679794       4.58678579       2.649E-06      0.00    <-- DIS
      15       4.58679295       4.58678579       1.561E-06      0.00    <-- DIS
      16       4.58679005       4.58678579       9.293E-07      0.00    <-- DIS
      17       4.58678836       4.58678579       5.606E-07      0.00    <-- DIS
      18       4.58678736       4.58678579       3.434E-07      0.00    <-- DIS
      19       4.58678677       4.58678579       2.139E-07      0.00    <-- DIS
      20       4.58678641       4.58678579       1.354E-07      0.00    <-- DIS
      21       4.58678619       4.58678579       8.711E-08      0.00    <-- DIS
      22       4.58678605       4.58678579       5.686E-08      0.00    <-- DIS
      23       4.58678596       4.58678579       3.759E-08      0.00    <-- DIS
      24       4.58678590       4.58678579       2.513E-08      0.00    <-- DIS
      25       4.58678587       4.58678579       1.695E-08      0.00    <-- DIS
      26       4.58678584       4.58678579       1.153E-08      0.00    <-- DIS
      27       4.58678583       4.58678579       7.885E-09      0.00    <-- DIS
      28       4.58678581       4.58678579       5.420E-09      0.00    <-- DIS
      29       4.58678581       4.58678579       3.740E-09      0.00    <-- DIS
      30       4.58678580       4.58678579       2.589E-09      0.00    <-- DIS
      31       4.58678580       4.58678579       1.796E-09      0.00    <-- DIS
      32       4.58678580       4.58678579       1.248E-09      0.00    <-- DIS
      33       4.58678579       4.58678579       8.687E-10      0.00    <-- DIS
      34       4.58678579       4.58678579       6.051E-10      0.00    <-- DIS
      35       4.58678579       4.58678579       4.218E-10      0.00    <-- DIS
      36       4.58678579       4.58678579       2.942E-10      0.00    <-- DIS
      37       4.58678579       4.58678579       2.052E-10      0.00    <-- DIS
      38       4.58678579       4.58678579       1.432E-10      0.00    <-- DIS
      39       4.58678579       4.58678579       9.993E-11      0.00    <-- DIS
      40       4.58678579       4.58678579       6.974E-11      0.00    <-- DIS
      41       4.58678579       4.58678579       4.867E-11      0.00    <-- DIS

             <<<      Delta < 1.000E-10  over  3 iterations     >>>
             <<< Disentanglement convergence criteria satisfied >>>

        Final Omega_I     4.58678579 (Ang^2)

 +----------------------------------------------------------------------------+

 Time to disentangle bands      0.001 (sec)

 Writing checkpoint file wann.chk... done

 
 *------------------------------- WANNIERISE ---------------------------------*
 +--------------------------------------------------------------------+<-- CONV
 | Iter  Delta Spread     RMS Gradient      Spread (Ang^2)      Time  |<-- CONV
 +--------------------------------------------------------------------+<-- CONV
 
 ------------------------------------------------------------------------------
 Initial State
  WF centre and spread    1  (  3.584565,  4.757689,  3.805023 )     2.56848714
  WF centre and spread    2  (  4.048610,  2.534228,  2.149352 )     2.13058944
  Sum of centres and spreads (  7.633175,  7.291917,  5.954376 )     4.69907658
 
      0     0.470E+01     0.0000000000        4.6990765821       0.00  <-- CONV
        O_D=      0.0000000 O_OD=      0.1122908 O_TOT=      4.6990766 <-- SPRD
 ------------------------------------------------------------------------------
 Cycle:      1
  WF centre and spread    1  ( -3.031789, -2.128704, -2.439933 )     2.58692722
  WF centre and spread    2  ( -2.559875,  2.539138,  2.162064 )     2.10908069
  Sum of centres and spreads ( -5.591664,  0.410435, -0.277869 )     4.69600791
 
      1    -0.307E-02     0.1381553384        4.6960079077       0.00  <-- CONV
        O_D=      0.0000000 O_OD=      0.1092221 O_TOT=      4.6960079 <-- SPRD
 Delta: O_D=  0.1047335E-30 O_OD= -0.3068674E-02 O_TOT= -0.3068674E-02 <-- DLTA
 ------------------------------------------------------------------------------
 Cycle:      2
  WF centre and spread    1  ( -3.031761, -2.128720, -2.439959 )     2.58686731
  WF centre and spread    2  ( -2.559868,  2.539121,  2.162023 )     2.10914056
  Sum of centres and spreads ( -5.591629,  0.410401, -0.277936 )     4.69600788
 
      2    -0.291E-07     0.0004264233        4.6960078786       0.00  <-- CONV
        O_D=      0.0000000 O_OD=      0.1092221 O_TOT=      4.6960079 <-- SPRD
 Delta: O_D= -0.1056796E-30 O_OD= -0.2911946E-07 O_TOT= -0.2911946E-07 <-- DLTA
 ------------------------------------------------------------------------------
 Cycle:      3
  WF centre and spread    1  ( -3.031761, -2.128720, -2.439959 )     2.58686731
  WF centre and spread    2  ( -2.559868,  2.539121,  2.162023 )     2.10914057
  Sum of centres and spreads ( -5.591629,  0.410401, -0.277936 )     4.69600788
 
      3    -0.622E-13     0.0000006681        4.6960078786       0.00  <-- CONV
        O_D=      0.0000000 O_OD=      0.1092221 O_TOT=      4.6960079 <-- SPRD
 Delta: O_D= -0.2084065E-30 O_OD= -0.6282475E-13 O_TOT= -0.6217249E-13 <-- DLTA
 ------------------------------------------------------------------------------
 Cycle:      4
  WF centre and spread    1  ( -3.031761, -2.128720, -2.439959 )     2.58686731
  WF centre and spread    2  ( -2.559868,  2.539121,  2.162023 )     2.10914057
  Sum of centres and spreads ( -5.591629,  0.410401, -0.277936 )     4.69600788
 
      4     0.000E+00     0.0000000195        4.6960078786       0.00  <-- CONV
        O_D=      0.0000000 O_OD=      0.1092221 O_TOT=      4.6960079 <-- SPRD
 Delta: O_D=  0.3357811E-30 O_OD=  0.1387779E-16 O_TOT=  0.0000000E+00 <-- DLTA
 ------------------------------------------------------------------------------
 Cycle:      5
  WF centre and spread    1  ( -3.031761, -2.128720, -2.439959 )     2.58686731
  WF centre and spread    2  ( -2.559868,  2.539121,  2.162023 )     2.10914057
  Sum of centres and spreads ( -5.591629,  0.410401, -0.277936 )     4.69600788
 
      5    -0.888E-15     0.0000000087        4.6960078786       0.00  <-- CONV
        O_D=      0.0000000 O_OD=      0.1092221 O_TOT=      4.6960079 <-- SPRD
 Delta: O_D= -0.2002143E-31 O_OD= -0.1249001E-15 O_TOT= -0.8881784E-15 <-- DLTA
 ------------------------------------------------------------------------------
 Cycle:      6
  WF centre and spread    1  ( -3.031761, -2.128720, -2.439959 )     2.58686731
  WF centre and spread    2  ( -2.559868,  2.539121,  2.162023 )     2.10914057
  Sum of centres and spreads ( -5.591629,  0.410401, -0.277936 )     4.69600788
 
      6     0.000E+00     0.0000000019        4.6960078786       0.00  <-- CONV
        O_D=      0.0000000 O_OD=      0.1092221 O_TOT=      4.6960079 <-- SPRD
 Delta: O_D= -0.1386952E-30 O_OD= -0.5551115E-16 O_TOT=  0.0000000E+00 <-- DLTA
 ------------------------------------------------------------------------------
 Cycle:      7
  WF centre and spread    1  ( -3.031761, -2.128720, -2.439959 )     2.58686731
  WF centre and spread    2  ( -2.559868,  2.539121,  2.162023 )     2.10914057
  Sum of centres and spreads ( -5.591629,  0.410401, -0.277936 )     4.69600788
 
      7     0.000E+00     0.0000000009        4.6960078786       0.00  <-- CONV
        O_D=      0.0000000 O_OD=      0.1092221 O_TOT=      4.6960079 <-- SPRD
 Delta: O_D=  0.2180535E-30 O_OD= -0.5551115E-16 O_TOT=  0.0000000E+00 <-- DLTA
 ------------------------------------------------------------------------------

             <<<     Delta < 1.000E-10  over  5 iterations     >>>
             <<< Wannierisation convergence criteria satisfied >>>

 Final State
  WF centre and spread    1  ( -3.031761, -2.128720, -2.439959 )     2.58686731
  WF centre and spread    2  ( -2.559868,  2.539121,  2.162023 )     2.10914057
  Sum of centres and spreads ( -5.591629,  0.410401, -0.277936 )     4.69600788
 
         Spreads (Ang^2)       Omega I      =     4.586785789
        ================       Omega D      =     0.000000000
                               Omega OD     =     0.109222089
    Final Spread (Ang^2)       Omega Total  =     4.696007879
 ------------------------------------------------------------------------------
 Time for wannierise            0.001 (sec)

 Writing checkpoint file wann.chk... done

 *---------------------------------------------------------------------------*
 |                               PLOTTING                                    |
 *---------------------------------------------------------------------------*
 
 
 Calculating interpolated band-structure
 
 Time to calculate interpolated band structure       0.001 (sec)
 
 Time for plotting              0.002 (sec)
 Total Execution Time           0.011 (sec)

 *===========================================================================*
 |                             TIMING INFORMATION                            |
 *===========================================================================*
 |    Tag                                                Ncalls      Time (s)|
 |---------------------------------------------------------------------------|
 |kmesh: get                                        :         1         0.005|
 |overlap: allocate                                 :         1         0.000|
 |overlap: read                                     :         1         0.000|
 |dis: main                                         :         1         0.001|
 |wann: main                                        :         1         0.001|
 |plot: main                                        :         1         0.002|
 *---------------------------------------------------------------------------*
 
 All done: wannier90 exiting
