<UPF version="2.0.1">
  <PP_INFO>

 Fe_ONCV_PBE_FR-1.0.upf

 This pseudopotential file has been produced using the code
 ONCVPSP  (Optimized Norm-Conservinng Vanderbilt PSeudopotential)
 fully-relativistic version 2.1.1, 03/26/2014 by D. R. Hamann
 The code is available through a link at URL www.mat-simresearch.com.
 Documentation with the package provides a full description of the
 input data below.

 While it is not required under the terms of the GNU GPL, it is
 suggested that you cite D. R. Hamann, Phys. Rev. B 88, 085117 (2013)
 in any publication using these pseudopotentials.

 -----

 This pseudopotential was produced with the SG15 1.0 and/or 1.1
 parameter sets, the Schlipf-Gygi norm-conserving pseudopotential
 library. For details of the construction and testing of the
 pseudopotential please refer to:

 M. Schlipf, F. Gygi, Comp. Phys. Comm. 196, 36 (2015)
 http://dx.doi.org/10.1016/j.cpc.2015.05.011

 The above authors kindly ask that you include this reference in all
 publications associated to this pseudopotential.

 Please note this fully-relativistic version does not employ the
 above self-consistent procedure at the fully-relativistic level.

 -----

 This pseudopotential was produced by Peter Scherpelz for the purpose
 of performing GW calculations with spin-orbit-coupling. Please see
 the publication:

 P. Scherpelz, M. Govoni, I. Hamada, G. Galli; J. Chem. Theory Comput. (2016)
 http://dx.doi.org/10.1021/acs.jctc.6b00114

 If you use these pseudopotentials in your work, we also kindly ask
 that you cite the above publication.

 -----

 This work is licensed under the Creative Commons Attribution-ShareAlike 
 4.0 International License. To view a copy of this license, visit 
 http://creativecommons.org/licenses/by-sa/4.0/ or send a letter to 
 Creative Commons, PO Box 1866, Mountain View, CA 94042, USA.

 The SG15 library is Copyright 2015 The Regents of the University of
 California.  Further modifications of these files are Copyright 2016
 Peter Scherpelz.

    <PP_INPUTFILE>
# ATOM AND REFERENCE CONFIGURATION
# atsym  z    nc    nv    iexc   psfile
  Fe 26.00     3     4     4      upf
#
#   n    l    f        energy (Ha)
    1    0    2.00
    2    0    2.00
    2    1    6.00
    3    0    2.00
    3    1    6.00
    4    0    2.00
    3    2    6.00
#
# PSEUDOPOTENTIAL AND OPTIMIZATION
# lmax
    2
#
#   l,   rc,     ep,   ncon, nbas, qcut
    0    2.09   -3.45    5    8    6.69
    1    2.11   -2.19    5    8    7.45
    2    2.06   -0.27    5    8    8.56
#
# LOCAL POTENTIAL
# lloc, lpopt,  rc(5),   dvloc0
    4    5      1.87       0.00
#
# VANDERBILT-KLEINMAN-BYLANDER PROJECTORs
# l, nproj, debl
    0    2    3.2598
    1    2    2.9512
    2    2    1.2415
#
# MODEL CORE CHARGE
# icmod, fcfact
    0    0.00
#
# LOG DERIVATIVE ANALYSIS
# epsh1, epsh2, depsh
   -5.00    3.00    0.02
#
# OUTPUT GRID
# rlmax, drl
    6.00    0.01
#
# TEST CONFIGURATIONS
# ncnf
    0
# nvcnf
#   n    l    f
    </PP_INPUTFILE>
  </PP_INFO>
  <!--                               -->
  <!-- END OF HUMAN READABLE SECTION -->
  <!--                               -->
    <PP_HEADER
       generated="Generated using ONCVPSP code by D. R. Hamann"
       author="anonymous"
       date="150703"
       comment=""
       element="Fe"
       pseudo_type="NC"
       relativistic="full"
       is_ultrasoft="F"
       is_paw="F"
       is_coulomb="F"
       has_so="T"
       has_wfc="F"
       has_gipaw="F"
       core_correction="F"
       functional="PBE"
       z_valence="   16.00"
       total_psenergy="  -1.18003123373E+02"
       rho_cutoff="   6.01000000000E+00"
       l_max="2"
       l_local="-1"
       mesh_size="   602"
       number_of_wfc="0"
       number_of_proj="10"/>
 <PP_MESH>
   <PP_R type="real"  size=" 602" columns="8">
    0.0000    0.0100    0.0200    0.0300    0.0400    0.0500    0.0600    0.0700
    0.0800    0.0900    0.1000    0.1100    0.1200    0.1300    0.1400    0.1500
    0.1600    0.1700    0.1800    0.1900    0.2000    0.2100    0.2200    0.2300
    0.2400    0.2500    0.2600    0.2700    0.2800    0.2900    0.3000    0.3100
    0.3200    0.3300    0.3400    0.3500    0.3600    0.3700    0.3800    0.3900
    0.4000    0.4100    0.4200    0.4300    0.4400    0.4500    0.4600    0.4700
    0.4800    0.4900    0.5000    0.5100    0.5200    0.5300    0.5400    0.5500
    0.5600    0.5700    0.5800    0.5900    0.6000    0.6100    0.6200    0.6300
    0.6400    0.6500    0.6600    0.6700    0.6800    0.6900    0.7000    0.7100
    0.7200    0.7300    0.7400    0.7500    0.7600    0.7700    0.7800    0.7900
    0.8000    0.8100    0.8200    0.8300    0.8400    0.8500    0.8600    0.8700
    0.8800    0.8900    0.9000    0.9100    0.9200    0.9300    0.9400    0.9500
    0.9600    0.9700    0.9800    0.9900    1.0000    1.0100    1.0200    1.0300
    1.0400    1.0500    1.0600    1.0700    1.0800    1.0900    1.1000    1.1100
    1.1200    1.1300    1.1400    1.1500    1.1600    1.1700    1.1800    1.1900
    1.2000    1.2100    1.2200    1.2300    1.2400    1.2500    1.2600    1.2700
    1.2800    1.2900    1.3000    1.3100    1.3200    1.3300    1.3400    1.3500
    1.3600    1.3700    1.3800    1.3900    1.4000    1.4100    1.4200    1.4300
    1.4400    1.4500    1.4600    1.4700    1.4800    1.4900    1.5000    1.5100
    1.5200    1.5300    1.5400    1.5500    1.5600    1.5700    1.5800    1.5900
    1.6000    1.6100    1.6200    1.6300    1.6400    1.6500    1.6600    1.6700
    1.6800    1.6900    1.7000    1.7100    1.7200    1.7300    1.7400    1.7500
    1.7600    1.7700    1.7800    1.7900    1.8000    1.8100    1.8200    1.8300
    1.8400    1.8500    1.8600    1.8700    1.8800    1.8900    1.9000    1.9100
    1.9200    1.9300    1.9400    1.9500    1.9600    1.9700    1.9800    1.9900
    2.0000    2.0100    2.0200    2.0300    2.0400    2.0500    2.0600    2.0700
    2.0800    2.0900    2.1000    2.1100    2.1200    2.1300    2.1400    2.1500
    2.1600    2.1700    2.1800    2.1900    2.2000    2.2100    2.2200    2.2300
    2.2400    2.2500    2.2600    2.2700    2.2800    2.2900    2.3000    2.3100
    2.3200    2.3300    2.3400    2.3500    2.3600    2.3700    2.3800    2.3900
    2.4000    2.4100    2.4200    2.4300    2.4400    2.4500    2.4600    2.4700
    2.4800    2.4900    2.5000    2.5100    2.5200    2.5300    2.5400    2.5500
    2.5600    2.5700    2.5800    2.5900    2.6000    2.6100    2.6200    2.6300
    2.6400    2.6500    2.6600    2.6700    2.6800    2.6900    2.7000    2.7100
    2.7200    2.7300    2.7400    2.7500    2.7600    2.7700    2.7800    2.7900
    2.8000    2.8100    2.8200    2.8300    2.8400    2.8500    2.8600    2.8700
    2.8800    2.8900    2.9000    2.9100    2.9200    2.9300    2.9400    2.9500
    2.9600    2.9700    2.9800    2.9900    3.0000    3.0100    3.0200    3.0300
    3.0400    3.0500    3.0600    3.0700    3.0800    3.0900    3.1000    3.1100
    3.1200    3.1300    3.1400    3.1500    3.1600    3.1700    3.1800    3.1900
    3.2000    3.2100    3.2200    3.2300    3.2400    3.2500    3.2600    3.2700
    3.2800    3.2900    3.3000    3.3100    3.3200    3.3300    3.3400    3.3500
    3.3600    3.3700    3.3800    3.3900    3.4000    3.4100    3.4200    3.4300
    3.4400    3.4500    3.4600    3.4700    3.4800    3.4900    3.5000    3.5100
    3.5200    3.5300    3.5400    3.5500    3.5600    3.5700    3.5800    3.5900
    3.6000    3.6100    3.6200    3.6300    3.6400    3.6500    3.6600    3.6700
    3.6800    3.6900    3.7000    3.7100    3.7200    3.7300    3.7400    3.7500
    3.7600    3.7700    3.7800    3.7900    3.8000    3.8100    3.8200    3.8300
    3.8400    3.8500    3.8600    3.8700    3.8800    3.8900    3.9000    3.9100
    3.9200    3.9300    3.9400    3.9500    3.9600    3.9700    3.9800    3.9900
    4.0000    4.0100    4.0200    4.0300    4.0400    4.0500    4.0600    4.0700
    4.0800    4.0900    4.1000    4.1100    4.1200    4.1300    4.1400    4.1500
    4.1600    4.1700    4.1800    4.1900    4.2000    4.2100    4.2200    4.2300
    4.2400    4.2500    4.2600    4.2700    4.2800    4.2900    4.3000    4.3100
    4.3200    4.3300    4.3400    4.3500    4.3600    4.3700    4.3800    4.3900
    4.4000    4.4100    4.4200    4.4300    4.4400    4.4500    4.4600    4.4700
    4.4800    4.4900    4.5000    4.5100    4.5200    4.5300    4.5400    4.5500
    4.5600    4.5700    4.5800    4.5900    4.6000    4.6100    4.6200    4.6300
    4.6400    4.6500    4.6600    4.6700    4.6800    4.6900    4.7000    4.7100
    4.7200    4.7300    4.7400    4.7500    4.7600    4.7700    4.7800    4.7900
    4.8000    4.8100    4.8200    4.8300    4.8400    4.8500    4.8600    4.8700
    4.8800    4.8900    4.9000    4.9100    4.9200    4.9300    4.9400    4.9500
    4.9600    4.9700    4.9800    4.9900    5.0000    5.0100    5.0200    5.0300
    5.0400    5.0500    5.0600    5.0700    5.0800    5.0900    5.1000    5.1100
    5.1200    5.1300    5.1400    5.1500    5.1600    5.1700    5.1800    5.1900
    5.2000    5.2100    5.2200    5.2300    5.2400    5.2500    5.2600    5.2700
    5.2800    5.2900    5.3000    5.3100    5.3200    5.3300    5.3400    5.3500
    5.3600    5.3700    5.3800    5.3900    5.4000    5.4100    5.4200    5.4300
    5.4400    5.4500    5.4600    5.4700    5.4800    5.4900    5.5000    5.5100
    5.5200    5.5300    5.5400    5.5500    5.5600    5.5700    5.5800    5.5900
    5.6000    5.6100    5.6200    5.6300    5.6400    5.6500    5.6600    5.6700
    5.6800    5.6900    5.7000    5.7100    5.7200    5.7300    5.7400    5.7500
    5.7600    5.7700    5.7800    5.7900    5.8000    5.8100    5.8200    5.8300
    5.8400    5.8500    5.8600    5.8700    5.8800    5.8900    5.9000    5.9100
    5.9200    5.9300    5.9400    5.9500    5.9600    5.9700    5.9800    5.9900
    6.0000    6.0100
   </PP_R>
   <PP_RAB type="real"  size=" 602" columns="8">
    0.0100    0.0100    0.0100    0.0100    0.0100    0.0100    0.0100    0.0100
    0.0100    0.0100    0.0100    0.0100    0.0100    0.0100    0.0100    0.0100
    0.0100    0.0100    0.0100    0.0100    0.0100    0.0100    0.0100    0.0100
    0.0100    0.0100    0.0100    0.0100    0.0100    0.0100    0.0100    0.0100
    0.0100    0.0100    0.0100    0.0100    0.0100    0.0100    0.0100    0.0100
    0.0100    0.0100    0.0100    0.0100    0.0100    0.0100    0.0100    0.0100
    0.0100    0.0100    0.0100    0.0100    0.0100    0.0100    0.0100    0.0100
    0.0100    0.0100    0.0100    0.0100    0.0100    0.0100    0.0100    0.0100
    0.0100    0.0100    0.0100    0.0100    0.0100    0.0100    0.0100    0.0100
    0.0100    0.0100    0.0100    0.0100    0.0100    0.0100    0.0100    0.0100
    0.0100    0.0100    0.0100    0.0100    0.0100    0.0100    0.0100    0.0100
    0.0100    0.0100    0.0100    0.0100    0.0100    0.0100    0.0100    0.0100
    0.0100    0.0100    0.0100    0.0100    0.0100    0.0100    0.0100    0.0100
    0.0100    0.0100    0.0100    0.0100    0.0100    0.0100    0.0100    0.0100
    0.0100    0.0100    0.0100    0.0100    0.0100    0.0100    0.0100    0.0100
    0.0100    0.0100    0.0100    0.0100    0.0100    0.0100    0.0100    0.0100
    0.0100    0.0100    0.0100    0.0100    0.0100    0.0100    0.0100    0.0100
    0.0100    0.0100    0.0100    0.0100    0.0100    0.0100    0.0100    0.0100
    0.0100    0.0100    0.0100    0.0100    0.0100    0.0100    0.0100    0.0100
    0.0100    0.0100    0.0100    0.0100    0.0100    0.0100    0.0100    0.0100
    0.0100    0.0100    0.0100    0.0100    0.0100    0.0100    0.0100    0.0100
    0.0100    0.0100    0.0100    0.0100    0.0100    0.0100    0.0100    0.0100
    0.0100    0.0100    0.0100    0.0100    0.0100    0.0100    0.0100    0.0100
    0.0100    0.0100    0.0100    0.0100    0.0100    0.0100    0.0100    0.0100
    0.0100    0.0100    0.0100    0.0100    0.0100    0.0100    0.0100    0.0100
    0.0100    0.0100    0.0100    0.0100    0.0100    0.0100    0.0100    0.0100
    0.0100    0.0100    0.0100    0.0100    0.0100    0.0100    0.0100    0.0100
    0.0100    0.0100    0.0100    0.0100    0.0100    0.0100    0.0100    0.0100
    0.0100    0.0100    0.0100    0.0100    0.0100    0.0100    0.0100    0.0100
    0.0100    0.0100    0.0100    0.0100    0.0100    0.0100    0.0100    0.0100
    0.0100    0.0100    0.0100    0.0100    0.0100    0.0100    0.0100    0.0100
    0.0100    0.0100    0.0100    0.0100    0.0100    0.0100    0.0100    0.0100
    0.0100    0.0100    0.0100    0.0100    0.0100    0.0100    0.0100    0.0100
    0.0100    0.0100    0.0100    0.0100    0.0100    0.0100    0.0100    0.0100
    0.0100    0.0100    0.0100    0.0100    0.0100    0.0100    0.0100    0.0100
    0.0100    0.0100    0.0100    0.0100    0.0100    0.0100    0.0100    0.0100
    0.0100    0.0100    0.0100    0.0100    0.0100    0.0100    0.0100    0.0100
    0.0100    0.0100    0.0100    0.0100    0.0100    0.0100    0.0100    0.0100
    0.0100    0.0100    0.0100    0.0100    0.0100    0.0100    0.0100    0.0100
    0.0100    0.0100    0.0100    0.0100    0.0100    0.0100    0.0100    0.0100
    0.0100    0.0100    0.0100    0.0100    0.0100    0.0100    0.0100    0.0100
    0.0100    0.0100    0.0100    0.0100    0.0100    0.0100    0.0100    0.0100
    0.0100    0.0100    0.0100    0.0100    0.0100    0.0100    0.0100    0.0100
    0.0100    0.0100    0.0100    0.0100    0.0100    0.0100    0.0100    0.0100
    0.0100    0.0100    0.0100    0.0100    0.0100    0.0100    0.0100    0.0100
    0.0100    0.0100    0.0100    0.0100    0.0100    0.0100    0.0100    0.0100
    0.0100    0.0100    0.0100    0.0100    0.0100    0.0100    0.0100    0.0100
    0.0100    0.0100    0.0100    0.0100    0.0100    0.0100    0.0100    0.0100
    0.0100    0.0100    0.0100    0.0100    0.0100    0.0100    0.0100    0.0100
    0.0100    0.0100    0.0100    0.0100    0.0100    0.0100    0.0100    0.0100
    0.0100    0.0100    0.0100    0.0100    0.0100    0.0100    0.0100    0.0100
    0.0100    0.0100    0.0100    0.0100    0.0100    0.0100    0.0100    0.0100
    0.0100    0.0100    0.0100    0.0100    0.0100    0.0100    0.0100    0.0100
    0.0100    0.0100    0.0100    0.0100    0.0100    0.0100    0.0100    0.0100
    0.0100    0.0100    0.0100    0.0100    0.0100    0.0100    0.0100    0.0100
    0.0100    0.0100    0.0100    0.0100    0.0100    0.0100    0.0100    0.0100
    0.0100    0.0100    0.0100    0.0100    0.0100    0.0100    0.0100    0.0100
    0.0100    0.0100    0.0100    0.0100    0.0100    0.0100    0.0100    0.0100
    0.0100    0.0100    0.0100    0.0100    0.0100    0.0100    0.0100    0.0100
    0.0100    0.0100    0.0100    0.0100    0.0100    0.0100    0.0100    0.0100
    0.0100    0.0100    0.0100    0.0100    0.0100    0.0100    0.0100    0.0100
    0.0100    0.0100    0.0100    0.0100    0.0100    0.0100    0.0100    0.0100
    0.0100    0.0100    0.0100    0.0100    0.0100    0.0100    0.0100    0.0100
    0.0100    0.0100    0.0100    0.0100    0.0100    0.0100    0.0100    0.0100
    0.0100    0.0100    0.0100    0.0100    0.0100    0.0100    0.0100    0.0100
    0.0100    0.0100    0.0100    0.0100    0.0100    0.0100    0.0100    0.0100
    0.0100    0.0100    0.0100    0.0100    0.0100    0.0100    0.0100    0.0100
    0.0100    0.0100    0.0100    0.0100    0.0100    0.0100    0.0100    0.0100
    0.0100    0.0100    0.0100    0.0100    0.0100    0.0100    0.0100    0.0100
    0.0100    0.0100    0.0100    0.0100    0.0100    0.0100    0.0100    0.0100
    0.0100    0.0100    0.0100    0.0100    0.0100    0.0100    0.0100    0.0100
    0.0100    0.0100    0.0100    0.0100    0.0100    0.0100    0.0100    0.0100
    0.0100    0.0100    0.0100    0.0100    0.0100    0.0100    0.0100    0.0100
    0.0100    0.0100    0.0100    0.0100    0.0100    0.0100    0.0100    0.0100
    0.0100    0.0100    0.0100    0.0100    0.0100    0.0100    0.0100    0.0100
    0.0100    0.0100
   </PP_RAB>
 </PP_MESH>
  <PP_LOCAL type="real"  size=" 602" columns="4">
   -4.1195165473E+01   -4.1194863755E+01   -4.1194275967E+01   -4.1193010870E+01
   -4.1190677224E+01   -4.1186793618E+01   -4.1180839448E+01   -4.1172303400E+01
   -4.1160723133E+01   -4.1145712685E+01   -4.1126976924E+01   -4.1104314553E+01
   -4.1077612410E+01   -4.1046834139E+01   -4.1012006066E+01   -4.0973202489E+01
   -4.0930531886E+01   -4.0884124914E+01   -4.0834124566E+01   -4.0780678500E+01
   -4.0723933352E+01   -4.0664030738E+01   -4.0601104623E+01   -4.0535279738E+01
   -4.0466670773E+01   -4.0395382117E+01   -4.0321507970E+01   -4.0245132672E+01
   -4.0166331168E+01   -4.0085169518E+01   -4.0001705410E+01   -3.9915988645E+01
   -3.9828061573E+01   -3.9737959465E+01   -3.9645710818E+01   -3.9551337635E+01
   -3.9454855590E+01   -3.9356274216E+01   -3.9255597038E+01   -3.9152821659E+01
   -3.9047939907E+01   -3.8940937968E+01   -3.8831796569E+01   -3.8720491228E+01
   -3.8606992578E+01   -3.8491266812E+01   -3.8373276238E+01   -3.8252979974E+01
   -3.8130334795E+01   -3.8005296103E+01   -3.7877819081E+01   -3.7747859935E+01
   -3.7615377233E+01   -3.7480333407E+01   -3.7342696067E+01   -3.7202439603E+01
   -3.7059546381E+01   -3.6914008081E+01   -3.6765826649E+01   -3.6615015255E+01
   -3.6461598558E+01   -3.6305613482E+01   -3.6147108527E+01   -3.5986144084E+01
   -3.5822791531E+01   -3.5657132252E+01   -3.5489257042E+01   -3.5319264644E+01
   -3.5147260476E+01   -3.4973355315E+01   -3.4797664169E+01   -3.4620304770E+01
   -3.4441396464E+01   -3.4261059127E+01   -3.4079412222E+01   -3.3896573938E+01
   -3.3712660507E+01   -3.3527785674E+01   -3.3342060271E+01   -3.3155591904E+01
   -3.2968484749E+01   -3.2780839428E+01   -3.2592752949E+01   -3.2404318709E+01
   -3.2215626526E+01   -3.2026762703E+01   -3.1837810107E+01   -3.1648848252E+01
   -3.1459953384E+01   -3.1271198562E+01   -3.1082653724E+01   -3.0894385750E+01
   -3.0706458501E+01   -3.0518932855E+01   -3.0331866724E+01   -3.0145315062E+01
   -2.9959329936E+01   -2.9773960335E+01   -2.9589252250E+01   -2.9405248687E+01
   -2.9221989614E+01   -2.9039511946E+01   -2.8857849533E+01   -2.8677033340E+01
   -2.8497090843E+01   -2.8318046623E+01   -2.8139922222E+01   -2.7962736196E+01
   -2.7786504442E+01   -2.7611239438E+01   -2.7436951166E+01   -2.7263647029E+01
   -2.7091332179E+01   -2.6920009157E+01   -2.6749678451E+01   -2.6580338851E+01
   -2.6411987719E+01   -2.6244620730E+01   -2.6078232708E+01   -2.5912817821E+01
   -2.5748369687E+01   -2.5584881820E+01   -2.5422347994E+01   -2.5260762143E+01
   -2.5100119271E+01   -2.4940415283E+01   -2.4781646788E+01   -2.4623812394E+01
   -2.4466912053E+01   -2.4310946647E+01   -2.4155919746E+01   -2.4001836147E+01
   -2.3848701748E+01   -2.3696525213E+01   -2.3545315847E+01   -2.3395084468E+01
   -2.3245843580E+01   -2.3097606022E+01   -2.2950386060E+01   -2.2804198229E+01
   -2.2659057500E+01   -2.2514978962E+01   -2.2371977604E+01   -2.2230068038E+01
   -2.2089264068E+01   -2.1949579315E+01   -2.1811025300E+01   -2.1673613800E+01
   -2.1537353772E+01   -2.1402253836E+01   -2.1268320632E+01   -2.1135558984E+01
   -2.1003973101E+01   -2.0873564009E+01   -2.0744333457E+01   -2.0616279320E+01
   -2.0489400494E+01   -2.0363692955E+01   -2.0239153117E+01   -2.0115775717E+01
   -1.9993555608E+01   -1.9872486892E+01   -1.9752563859E+01   -1.9633780576E+01
   -1.9516131637E+01   -1.9399611625E+01   -1.9284216014E+01   -1.9169940320E+01
   -1.9056781135E+01   -1.8944735123E+01   -1.8833799890E+01   -1.8723973202E+01
   -1.8615253333E+01   -1.8507638821E+01   -1.8401128130E+01   -1.8295719976E+01
   -1.8191412537E+01   -1.8088203911E+01   -1.7986091600E+01   -1.7885072202E+01
   -1.7785142273E+01   -1.7686296065E+01   -1.7588529022E+01   -1.7491832398E+01
   -1.7396200347E+01   -1.7301621212E+01   -1.7208086396E+01   -1.7115582675E+01
   -1.7024097727E+01   -1.6933617573E+01   -1.6844127245E+01   -1.6755612090E+01
   -1.6668056100E+01   -1.6581444069E+01   -1.6495759534E+01   -1.6410986491E+01
   -1.6327108703E+01   -1.6244109799E+01   -1.6161973643E+01   -1.6080684448E+01
   -1.6000225810E+01   -1.5920583167E+01   -1.5841740675E+01   -1.5763684321E+01
   -1.5686400161E+01   -1.5609873984E+01   -1.5534094412E+01   -1.5459047919E+01
   -1.5384724161E+01   -1.5311112279E+01   -1.5238201433E+01   -1.5165982210E+01
   -1.5094444303E+01   -1.5023578335E+01   -1.4953374635E+01   -1.4883823585E+01
   -1.4814916660E+01   -1.4746644617E+01   -1.4678998963E+01   -1.4611971198E+01
   -1.4545552537E+01   -1.4479735133E+01   -1.4414510583E+01   -1.4349870913E+01
   -1.4285808554E+01   -1.4222315395E+01   -1.4159384215E+01   -1.4097007586E+01
   -1.4035177883E+01   -1.3973888345E+01   -1.3913131716E+01   -1.3852901014E+01
   -1.3793189710E+01   -1.3733990796E+01   -1.3675297867E+01   -1.3617104612E+01
   -1.3559404281E+01   -1.3502190978E+01   -1.3445458580E+01   -1.3389200684E+01
   -1.3333411755E+01   -1.3278085861E+01   -1.3223217021E+01   -1.3168799928E+01
   -1.3114828884E+01   -1.3061298284E+01   -1.3008203042E+01   -1.2955537696E+01
   -1.2903296967E+01   -1.2851475988E+01   -1.2800069536E+01   -1.2749072612E+01
   -1.2698480566E+01   -1.2648288414E+01   -1.2598491394E+01   -1.2549085075E+01
   -1.2500064712E+01   -1.2451425737E+01   -1.2403163941E+01   -1.2355274817E+01
   -1.2307753954E+01   -1.2260597363E+01   -1.2213800776E+01   -1.2167359906E+01
   -1.2121270982E+01   -1.2075529977E+01   -1.2030132695E+01   -1.1985075581E+01
   -1.1940354828E+01   -1.1895966368E+01   -1.1851906795E+01   -1.1808172499E+01
   -1.1764759648E+01   -1.1721664849E+01   -1.1678884722E+01   -1.1636415676E+01
   -1.1594254302E+01   -1.1552397450E+01   -1.1510841773E+01   -1.1469583821E+01
   -1.1428620669E+01   -1.1387949169E+01   -1.1347565959E+01   -1.1307468183E+01
   -1.1267652886E+01   -1.1228116949E+01   -1.1188857411E+01   -1.1149871556E+01
   -1.1111156511E+01   -1.1072709202E+01   -1.1034527131E+01   -1.0996607573E+01
   -1.0958947653E+01   -1.0921544761E+01   -1.0884396401E+01   -1.0847499951E+01
   -1.0810852630E+01   -1.0774452173E+01   -1.0738296100E+01   -1.0702381801E+01
   -1.0666706883E+01   -1.0631269092E+01   -1.0596066064E+01   -1.0561095220E+01
   -1.0526354511E+01   -1.0491841692E+01   -1.0457554428E+01   -1.0423490436E+01
   -1.0389647713E+01   -1.0356024111E+01   -1.0322617335E+01   -1.0289425377E+01
   -1.0256446264E+01   -1.0223677947E+01   -1.0191118178E+01   -1.0158765192E+01
   -1.0126617045E+01   -1.0094671738E+01   -1.0062927219E+01   -1.0031381790E+01
   -1.0000033589E+01   -9.9688806694E+00   -9.9379211667E+00   -9.9071534283E+00
   -9.8765756795E+00   -9.8461860319E+00   -9.8159827798E+00   -9.7859643207E+00
   -9.7561289624E+00   -9.7264748819E+00   -9.6970005029E+00   -9.6677042787E+00
   -9.6385845960E+00   -9.6096397030E+00   -9.5808681250E+00   -9.5522683775E+00
   -9.5238389223E+00   -9.4955780836E+00   -9.4674844633E+00   -9.4395566447E+00
   -9.4117931613E+00   -9.3841924182E+00   -9.3567530694E+00   -9.3294737721E+00
   -9.3023531281E+00   -9.2753896278E+00   -9.2485819554E+00   -9.2219288466E+00
   -9.1954289684E+00   -9.1690809016E+00   -9.1428833389E+00   -9.1168350996E+00
   -9.0909349127E+00   -9.0651814540E+00   -9.0395734058E+00   -9.0141096739E+00
   -8.9887890467E+00   -8.9636102999E+00   -8.9385720879E+00   -8.9136734054E+00
   -8.8889130973E+00   -8.8642900085E+00   -8.8398028562E+00   -8.8154506199E+00
   -8.7912322328E+00   -8.7671465936E+00   -8.7431925275E+00   -8.7193689424E+00
   -8.6956748751E+00   -8.6721092756E+00   -8.6486710828E+00   -8.6253591195E+00
   -8.6021725256E+00   -8.5791102998E+00   -8.5561714410E+00   -8.5333548523E+00
   -8.5106596002E+00   -8.4880847873E+00   -8.4656294589E+00   -8.4432926398E+00
   -8.4210732765E+00   -8.3989705843E+00   -8.3769836533E+00   -8.3551115735E+00
   -8.3333533488E+00   -8.3117081199E+00   -8.2901750792E+00   -8.2687533589E+00
   -8.2474420915E+00   -8.2262402727E+00   -8.2051472097E+00   -8.1841620767E+00
   -8.1632840466E+00   -8.1425122452E+00   -8.1218458129E+00   -8.1012840528E+00
   -8.0808261763E+00   -8.0604713947E+00   -8.0402188352E+00   -8.0200677642E+00
   -8.0000174813E+00   -7.9800672348E+00   -7.9602162727E+00   -7.9404637317E+00
   -7.9208089813E+00   -7.9012513241E+00   -7.8817900432E+00   -7.8624244182E+00
   -7.8431536142E+00   -7.8239770698E+00   -7.8048941017E+00   -7.7859040265E+00
   -7.7670061420E+00   -7.7481996815E+00   -7.7294840995E+00   -7.7108587443E+00
   -7.6923229644E+00   -7.6738760828E+00   -7.6555173820E+00   -7.6372463376E+00
   -7.6190623285E+00   -7.6009647335E+00   -7.5829529067E+00   -7.5650261619E+00
   -7.5471840017E+00   -7.5294258338E+00   -7.5117510660E+00   -7.4941590893E+00
   -7.4766492320E+00   -7.4592210289E+00   -7.4418739153E+00   -7.4246073265E+00
   -7.4074206958E+00   -7.3903133505E+00   -7.3732848622E+00   -7.3563346927E+00
   -7.3394623034E+00   -7.3226671561E+00   -7.3059486198E+00   -7.2893062503E+00
   -7.2727395531E+00   -7.2562480150E+00   -7.2398311227E+00   -7.2234882984E+00
   -7.2072190614E+00   -7.1910229679E+00   -7.1748995284E+00   -7.1588482537E+00
   -7.1428686241E+00   -7.1269601097E+00   -7.1111223207E+00   -7.0953547904E+00
   -7.0796570522E+00   -7.0640286397E+00   -7.0484689928E+00   -7.0329777477E+00
   -7.0175544695E+00   -7.0021987133E+00   -6.9869100344E+00   -6.9716879398E+00
   -6.9565319878E+00   -6.9414418085E+00   -6.9264169779E+00   -6.9114570719E+00
   -6.8965616663E+00   -6.8817302424E+00   -6.8669624860E+00   -6.8522579963E+00
   -6.8376163689E+00   -6.8230371993E+00   -6.8085200443E+00   -6.7940644871E+00
   -6.7796702008E+00   -6.7653367998E+00   -6.7510638986E+00   -6.7368511118E+00
   -6.7226979816E+00   -6.7086041853E+00   -6.6945693781E+00   -6.6805931925E+00
   -6.6666752609E+00   -6.6528152102E+00   -6.6390125933E+00   -6.6252671455E+00
   -6.6115785165E+00   -6.5979463559E+00   -6.5843703132E+00   -6.5708500115E+00
   -6.5573850672E+00   -6.5439752102E+00   -6.5306201065E+00   -6.5173194219E+00
   -6.5040728224E+00   -6.4908799340E+00   -6.4777404201E+00   -6.4646540113E+00
   -6.4516203889E+00   -6.4386392345E+00   -6.4257102296E+00   -6.4128330088E+00
   -6.4000072679E+00   -6.3872327434E+00   -6.3745091315E+00   -6.3618361286E+00
   -6.3492134309E+00   -6.3366406878E+00   -6.3241176124E+00   -6.3116439529E+00
   -6.2992194198E+00   -6.2868437236E+00   -6.2745165747E+00   -6.2622376419E+00
   -6.2500066426E+00   -6.2378233420E+00   -6.2256874641E+00   -6.2135987327E+00
   -6.2015568718E+00   -6.1895615748E+00   -6.1776125507E+00   -6.1657095864E+00
   -6.1538524186E+00   -6.1420407843E+00   -6.1302744203E+00   -6.1185530491E+00
   -6.1068763596E+00   -6.0952441650E+00   -6.0836562142E+00   -6.0721122565E+00
   -6.0606120408E+00   -6.0491553162E+00   -6.0377417630E+00   -6.0263712020E+00
   -6.0150434013E+00   -6.0037581217E+00   -5.9925151240E+00   -5.9813141690E+00
   -5.9701549756E+00   -5.9590373188E+00   -5.9479610040E+00   -5.9369258031E+00
   -5.9259314880E+00   -5.9149778308E+00   -5.9040645936E+00   -5.8931914960E+00
   -5.8823583836E+00   -5.8715650390E+00   -5.8608112447E+00   -5.8500967832E+00
   -5.8394214372E+00   -5.8287849443E+00   -5.8181871110E+00   -5.8076277570E+00
   -5.7971066750E+00   -5.7866236575E+00   -5.7761784974E+00   -5.7657709839E+00
   -5.7554008475E+00   -5.7450679563E+00   -5.7347721125E+00   -5.7245131186E+00
   -5.7142907769E+00   -5.7041048897E+00   -5.6939552328E+00   -5.6838415965E+00
   -5.6737638342E+00   -5.6637217575E+00   -5.6537151780E+00   -5.6437439072E+00
   -5.6338077565E+00   -5.6239064945E+00   -5.6140399575E+00   -5.6042079897E+00
   -5.5944104112E+00   -5.5846470426E+00   -5.5749177039E+00   -5.5652222157E+00
   -5.5555603446E+00   -5.5459319598E+00   -5.5363369016E+00   -5.5267749984E+00
   -5.5172460791E+00   -5.5077499723E+00   -5.4982865068E+00   -5.4888554528E+00
   -5.4794566999E+00   -5.4700900894E+00   -5.4607554580E+00   -5.4514526425E+00
   -5.4421814795E+00   -5.4329418057E+00   -5.4237333999E+00   -5.4145561598E+00
   -5.4054099335E+00   -5.3962945652E+00   -5.3872098994E+00   -5.3781557802E+00
   -5.3691320519E+00   -5.3601385064E+00   -5.3511750386E+00   -5.3422415080E+00
   -5.3333377661E+00   -5.3244636645E+00
  </PP_LOCAL>
 <PP_NONLOCAL>
   <PP_BETA.1
       type="real"
       size=" 602"
       columns="4"
       index="1"
       angular_momentum="0"
       cutoff_radius_index=" 216"
       cutoff_radius="    2.1500000000E+00" >
    0.0000000000E+00   -3.2637823303E-02   -6.5246372538E-02   -9.7796454924E-02
   -1.3025903974E-01   -1.6260533806E-01   -1.9480688103E-01   -2.2683559604E-01
   -2.5866388046E-01   -2.9026467248E-01   -3.2161151845E-01   -3.5267863654E-01
   -3.8344097615E-01   -4.1387427284E-01   -4.4395509836E-01   -4.7366090558E-01
   -5.0297006798E-01   -5.3186191360E-01   -5.6031675317E-01   -5.8831590239E-01
   -6.1584169815E-01   -6.4287750882E-01   -6.6940773846E-01   -6.9541782505E-01
   -7.2089423283E-01   -7.4582443897E-01   -7.7019691451E-01   -7.9400110007E-01
   -8.1722737641E-01   -8.3986703012E-01   -8.6191221492E-01   -8.8335590871E-01
   -9.0419186714E-01   -9.2441457349E-01   -9.4401918580E-01   -9.6300148234E-01
   -9.8135780344E-01   -9.9908499372E-01   -1.0161803433E+00   -1.0326415262E+00
   -1.0484665420E+00   -1.0636536568E+00   -1.0782013452E+00   -1.0921082341E+00
   -1.1053730489E+00   -1.1179945619E+00   -1.1299715446E+00   -1.1413027230E+00
   -1.1519867385E+00   -1.1620221079E+00   -1.1714071946E+00   -1.1801401834E+00
   -1.1882190586E+00   -1.1956415835E+00   -1.2024053012E+00   -1.2085075187E+00
   -1.2139453190E+00   -1.2187155630E+00   -1.2228149076E+00   -1.2262398229E+00
   -1.2289866233E+00   -1.2310514930E+00   -1.2324305311E+00   -1.2331197896E+00
   -1.2331153253E+00   -1.2324132496E+00   -1.2310097908E+00   -1.2289013545E+00