 written on 14Jun2022 at 17:42:41 
           2
           1
    1
    0    0    0    1    1    0.260071    0.000000
    0    0    0    2    1   -1.627552   -0.000050
    0    0    0    1    2   -1.627552    0.000050
    0    0    0    2    2    0.904571   -0.000000
