<PP_INFO>
Generated using Vanderbilt code, version   7  3  6                              
Author: kfg        Generation date:   31    3   15                              
Automatically converted from original format                                    
    0        The Pseudo was generated with a Non-Relativistic Calculation
  1.50000000000E+00    Local Potential cutoff radius
nl pn  l   occ               Rcut            Rcut US             E pseu
1S  1  0  2.00      0.00000000000      1.35000000000     -7.80519964400
2S  2  0  2.00      0.00000000000      1.35000000000     -0.41224049900
2P  2  1  0.00      0.00000000000      1.60000000000     -0.14842245900
</PP_INFO>


<PP_HEADER>
   0                   Version Number
  Be                   Element
   US                  Ultrasoft pseudopotential
    F                  Nonlinear Core Correction
 SLA  PW   PBX  PBC    PBE  Exchange-Correlation functional
    4.00000000000      Z valence
  -27.97245939710      Total energy
    0.00000    0.00000 Suggested cutoff for wfc and rho
    2                  Max angular momentum component
  769                  Number of points in mesh
    3    6             Number of Wavefunctions, Number of Projectors
 Wavefunctions         nl  l   occ
                       1S  0  2.00
                       2S  0  2.00
                       2P  1  0.00
</PP_HEADER>


<PP_MESH>
  <PP_R>
  0.00000000000E+00  3.83134739660E-06  7.72708568336E-06  1.16882970349E-05
  1.57160818131E-05  1.98115588730E-05  2.39758658735E-05  2.82101595933E-05
  3.25156162522E-05  3.68934318383E-05  4.13448224394E-05  4.58710245817E-05
  5.04732955726E-05  5.51529138502E-05  5.99111793388E-05  6.47494138092E-05
  6.96689612466E-05  7.46711882235E-05  7.97574842797E-05  8.49292623079E-05
  9.01879589463E-05  9.55350349778E-05  1.00971975736E-04  1.06500291516E-04
  1.12121517998E-04  1.17837216670E-04  1.23648975262E-04  1.29558408188E-04
  1.35567156997E-04  1.41676890824E-04  1.47889306856E-04  1.54206130804E-04
  1.60629117382E-04  1.67160050795E-04  1.73800745233E-04  1.80553045375E-04
  1.87418826905E-04  1.94399997027E-04  2.01498495001E-04  2.08716292677E-04
  2.16055395045E-04  2.23517840792E-04  2.31105702869E-04  2.38821089062E-04
  2.46666142584E-04  2.54643042668E-04  2.62754005171E-04  2.71001283188E-04
  2.79387167685E-04  2.87913988128E-04  2.96584113132E-04  3.05399951121E-04
  3.14363950996E-04  3.23478602814E-04  3.32746438483E-04  3.42170032459E-04
  3.51752002470E-04  3.61495010234E-04  3.71401762206E-04  3.81475010324E-04
  3.91717552778E-04  4.02132234785E-04  4.12721949378E-04  4.23489638213E-04
  4.34438292385E-04  4.45570953256E-04  4.56890713303E-04  4.68400716978E-04
  4.80104161578E-04  4.92004298133E-04  5.04104432316E-04  5.16407925351E-04
  5.28918194955E-04  5.41638716284E-04  5.54573022896E-04  5.67724707739E-04
  5.81097424142E-04  5.94694886835E-04  6.08520872979E-04  6.22579223214E-04
  6.36873842728E-04  6.51408702339E-04  6.66187839604E-04  6.81215359932E-04
  6.96495437732E-04  7.12032317568E-04  7.27830315339E-04  7.43893819480E-04
  7.60227292179E-04  7.76835270617E-04  7.93722368227E-04  8.10893275979E-04
  8.28352763680E-04  8.46105681299E-04  8.64156960318E-04  8.82511615095E-04
  9.01174744265E-04  9.20151532149E-04  9.39447250200E-04  9.59067258464E-04
  9.79017007069E-04  9.99302037740E-04  1.01992798534E-03  1.04090057943E-03
  1.06222564586E-03  1.08390910841E-03  1.10595699039E-03  1.12837541636E-03
  1.15117061380E-03  1.17434891486E-03  1.19791675811E-03  1.22188069032E-03
  1.24624736829E-03  1.27102356070E-03  1.29621614999E-03  1.32183213426E-03
  1.34787862922E-03  1.37436287018E-03  1.40129221404E-03  1.42867414135E-03
  1.45651625838E-03  1.48482629923E-03  1.51361212798E-03  1.54288174087E-03
  1.57264326856E-03  1.60290497830E-03  1.63367527634E-03  1.66496271018E-03
  1.69677597096E-03  1.72912389592E-03  1.76201547079E-03  1.79545983233E-03
  1.82946627087E-03  1.86404423284E-03  1.89920332347E-03  1.93495330939E-03
  1.97130412139E-03  2.00826585714E-03  2.04584878404E-03  2.08406334202E-03
  2.12292014649E-03  2.16242999125E-03  2.20260385151E-03  2.24345288695E-03
  2.28498844477E-03  2.32722206290E-03  2.37016547317E-03  2.41383060457E-03
  2.45822958661E-03  2.50337475260E-03  2.54927864317E-03  2.59595400969E-03
  2.64341381784E-03  2.69167125121E-03  2.74073971495E-03  2.79063283949E-03
  2.84136448438E-03  2.89294874205E-03  2.94539994179E-03  2.99873265373E-03
  3.05296169285E-03  3.10810212311E-03  3.16416926166E-03  3.22117868307E-03
  3.27914622365E-03  3.33808798586E-03  3.39802034281E-03  3.45895994274E-03
  3.52092371373E-03  3.58392886833E-03  3.64799290836E-03  3.71313362982E-03
  3.77936912777E-03  3.84671780138E-03  3.91519835905E-03  3.98482982360E-03
  4.05563153754E-03  4.12762316848E-03  4.20082471456E-03  4.27525651001E-03
  4.35093923079E-03  4.42789390039E-03  4.50614189560E-03  4.58570495246E-03
  4.66660517234E-03  4.74886502804E-03  4.83250737006E-03  4.91755543291E-03
  5.00403284161E-03  5.09196361821E-03  5.18137218848E-03  5.27228338874E-03
  5.36472247265E-03  5.45871511836E-03  5.55428743552E-03  5.65146597261E-03
  5.75027772431E-03  5.85075013896E-03  5.95291112620E-03  6.05678906474E-03
  6.16241281024E-03  6.26981170330E-03  6.37901557764E-03  6.49005476838E-03
  6.60296012043E-03  6.71776299714E-03  6.83449528893E-03  6.95318942217E-03
  7.07387836824E-03  7.19659565260E-03  7.32137536419E-03  7.44825216484E-03
  7.57726129892E-03  7.70843860313E-03  7.84182051645E-03  7.97744409028E-03
  8.11534699869E-03  8.25556754895E-03  8.39814469210E-03  8.54311803382E-03
  8.69052784542E-03  8.84041507502E-03  8.99282135892E-03  9.14778903318E-03
  9.30536114537E-03  9.46558146654E-03  9.62849450336E-03  9.79414551051E-03
  9.96258050320E-03  1.01338462700E-02  1.03079903859E-02  1.04850612254E-02
  1.06651079758E-02  1.08481806515E-02  1.10343301070E-02  1.12236080518E-02
  1.14160670642E-02  1.16117606064E-02  1.18107430389E-02  1.20130696359E-02
  1.22187966006E-02  1.24279810806E-02  1.26406811840E-02  1.28569559957E-02
  1.30768655933E-02  1.33004710643E-02  1.35278345227E-02  1.37590191265E-02
  1.39940890951E-02  1.42331097273E-02  1.44761474192E-02  1.47232696829E-02
  1.49745451649E-02  1.52300436657E-02  1.54898361588E-02  1.57539948103E-02
  1.60225929994E-02  1.62957053384E-02  1.65734076935E-02  1.68557772063E-02
  1.71428923143E-02  1.74348327737E-02  1.77316796809E-02  1.80335154954E-02
  1.83404240622E-02  1.86524906358E-02  1.89698019034E-02  1.92924460089E-02
  1.96205125779E-02  1.99540927420E-02  2.02932791646E-02  2.06381660662E-02
  2.09888492511E-02  2.13454261335E-02  2.17079957647E-02  2.20766588609E-02
  2.24515178310E-02  2.28326768047E-02  2.32202416621E-02  2.36143200625E-02
  2.40150214747E-02  2.44224572072E-02  2.48367404393E-02  2.52579862522E-02
  2.56863116615E-02  2.61218356491E-02  2.65646791967E-02  2.70149653193E-02
  2.74728190992E-02  2.79383677210E-02  2.84117405068E-02  2.88930689520E-02
  2.93824867621E-02  2.98801298896E-02  3.03861365719E-02  3.09006473696E-02
  3.14238052059E-02  3.19557554056E-02  3.24966457360E-02  3.30466264481E-02
  3.36058503178E-02  3.41744726885E-02  3.47526515147E-02  3.53405474052E-02
  3.59383236684E-02  3.65461463569E-02  3.71641843143E-02  3.77926092218E-02
  3.84315956459E-02  3.90813210870E-02  3.97419660285E-02  4.04137139872E-02
  4.10967515640E-02  4.17912684960E-02  4.24974577090E-02  4.32155153712E-02
  4.39456409478E-02  4.46880372560E-02  4.54429105218E-02  4.62104704371E-02
  4.69909302180E-02  4.77845066638E-02  4.85914202175E-02  4.94118950270E-02
  5.02461590073E-02  5.10944439036E-02  5.19569853561E-02  5.28340229653E-02
  5.37258003583E-02  5.46325652568E-02  5.55545695457E-02  5.64920693434E-02
  5.74453250724E-02  5.84146015321E-02  5.94001679722E-02  6.04022981675E-02
  6.14212704940E-02  6.24573680061E-02  6.35108785152E-02  6.45820946701E-02
  6.56713140375E-02  6.67788391856E-02  6.79049777671E-02  6.90500426057E-02
  7.02143517824E-02  7.13982287237E-02  7.26020022920E-02  7.38260068766E-02
  7.50705824867E-02  7.63360748456E-02  7.76228354873E-02  7.89312218534E-02
  8.02615973930E-02  8.16143316635E-02  8.29898004331E-02  8.43883857853E-02
  8.58104762250E-02  8.72564667864E-02  8.87267591429E-02  9.02217617186E-02
  9.17418898015E-02  9.32875656591E-02  9.48592186559E-02  9.64572853722E-02
  9.80822097258E-02  9.97344430948E-02  1.01414444444E-01  1.03122680450E-01
  1.04859625636E-01  1.06625762496E-01  1.08421581635E-01  1.10247581905E-01
  1.12104270538E-01  1.13992163294E-01  1.15911784599E-01  1.17863667694E-01
  1.19848354781E-01  1.21866397175E-01  1.23918355456E-01  1.26004799627E-01
  1.28126309267E-01  1.30283473699E-01  1.32476892149E-01  1.34707173915E-01
  1.36974938532E-01  1.39280815951E-01  1.41625446708E-01  1.44009482104E-01
  1.46433584386E-01  1.48898426932E-01  1.51404694437E-01  1.53953083101E-01
  1.56544300827E-01  1.59179067414E-01  1.61858114759E-01  1.64582187059E-01
  1.67352041018E-01  1.70168446057E-01  1.73032184530E-01  1.75944051938E-01
  1.78904857152E-01  1.81915422636E-01  1.84976584679E-01  1.88089193622E-01
  1.91254114100E-01  1.94472225276E-01  1.97744421093E-01  2.01071610513E-01
  2.04454717778E-01  2.07894682662E-01  2.11392460731E-01  2.14949023615E-01
  2.18565359269E-01  2.22242472256E-01  2.25981384018E-01  2.29783133166E-01
  2.33648775767E-01  2.37579385634E-01  2.41576054629E-01  2.45639892964E-01
  2.49772029509E-01  2.53973612105E-01  2.58245807887E-01  2.62589803603E-01
  2.67006805945E-01  2.71498041889E-01  2.76064759028E-01  2.80708225923E-01
  2.85429732458E-01  2.90230590191E-01  2.95112132725E-01  3.00075716076E-01
  3.05122719049E-01  3.10254543621E-01  3.15472615332E-01  3.20778383681E-01
  3.26173322525E-01  3.31658930494E-01  3.37236731403E-01  3.42908274676E-01
  3.48675135780E-01  3.54538916657E-01  3.60501246172E-01  3.66563780568E-01
  3.72728203919E-01  3.78996228606E-01  3.85369595786E-01  3.91850075881E-01
  3.98439469066E-01  4.05139605769E-01  4.11952347184E-01  4.18879585781E-01
  4.25923245839E-01  4.33085283975E-01  4.40367689691E-01  4.47772485923E-01
  4.55301729606E-01  4.62957512247E-01  4.70741960500E-01  4.78657236762E-01
  4.86705539772E-01  4.94889105222E-01  5.03210206376E-01  5.11671154706E-01
  5.20274300528E-01  5.29022033662E-01  5.37916784089E-01  5.46961022630E-01
  5.56157261632E-01  5.65508055665E-01  5.75016002232E-01  5.84683742490E-01
  5.94513961985E-01  6.04509391397E-01  6.14672807298E-01  6.25007032924E-01
  6.35514938961E-01  6.46199444338E-01  6.57063517042E-01  6.68110174941E-01
  6.79342486623E-01  6.90763572246E-01  7.02376604408E-01  7.14184809024E-01
  7.26191466229E-01  7.38399911282E-01  7.50813535495E-01  7.63435787179E-01
  7.76270172594E-01  7.89320256931E-01  8.02589665297E-01  8.16082083724E-01
  8.29801260193E-01  8.43751005674E-01  8.57935195186E-01  8.72357768874E-01
  8.87022733100E-01  9.01934161560E-01  9.17096196413E-01  9.32513049434E-01
  9.48189003179E-01  9.64128412183E-01  9.80335704160E-01  9.96815381241E-01
  1.01357202122E+00  1.03061027883E+00  1.04793488702E+00  1.06555065830E+00
  1.08346248605E+00  1.10167534590E+00  1.12019429709E+00  1.13902448389E+00
  1.15817113704E+00  1.17763957516E+00  1.19743520628E+00  1.21756352932E+00
  1.23803013561E+00  1.25884071044E+00  1.28000103467E+00  1.30151698630E+00
  1.32339454213E+00  1.34563977938E+00  1.36825887744E+00  1.39125811954E+00
  1.41464389449E+00  1.43842269851E+00  1.46260113696E+00  1.48718592624E+00
  1.51218389561E+00  1.53760198911E+00  1.56344726749E+00  1.58972691016E+00
  1.61644821718E+00  1.64361861132E+00  1.67124564008E+00  1.69933697781E+00
  1.72790042784E+00  1.75694392466E+00  1.78647553607E+00  1.81650346550E+00
  1.84703605424E+00  1.87808178375E+00  1.90964927805E+00  1.94174730609E+00
  1.97438478419E+00  2.00757077853E+00  2.04131450765E+00  2.07562534504E+00
  2.11051282169E+00  2.14598662880E+00  2.18205662044E+00  2.21873281627E+00
  2.25602540437E+00  2.29394474402E+00  2.33250136862E+00  2.37170598860E+00
  2.41156949437E+00  2.45210295939E+00  2.49331764321E+00  2.53522499463E+00
  2.57783665484E+00  2.62116446069E+00  2.66522044796E+00  2.71001685471E+00
  2.75556612467E+00  2.80188091071E+00  2.84897407834E+00  2.89685870931E+00
  2.94554810521E+00  2.99505579119E+00  3.04539551968E+00  3.09658127429E+00
  3.14862727360E+00  3.20154797517E+00  3.25535807954E+00  3.31007253430E+00
  3.36570653826E+00  3.42227554567E+00  3.47979527051E+00  3.53828169085E+00
  3.59775105330E+00  3.65821987749E+00  3.71970496073E+00  3.78222338258E+00
  3.84579250969E+00  3.91043000056E+00  3.97615381044E+00  4.04298219640E+00
  4.11093372228E+00  4.18002726396E+00  4.25028201453E+00  4.32171748965E+00
  4.39435353297E+00  4.46821032162E+00  4.54330837187E+00  4.61966854476E+00
  4.69731205195E+00  4.77626046157E+00  4.85653570424E+00  4.93816007917E+00
  5.02115626031E+00  5.10554730268E+00  5.19135664880E+00  5.27860813514E+00
  5.36732599879E+00  5.45753488416E+00  5.54925984987E+00  5.64252637565E+00
  5.73736036948E+00  5.83378817474E+00  5.93183657756E+00  6.03153281423E+00
  6.13290457879E+00  6.23598003071E+00  6.34078780274E+00  6.44735700881E+00
  6.55571725216E+00  6.66589863357E+00  6.77793175967E+00  6.89184775151E+00
  7.00767825314E+00  7.12545544045E+00  7.24521203008E+00  7.36698128853E+00
  7.49079704136E+00  7.61669368264E+00  7.74470618447E+00  7.87487010670E+00
  8.00722160681E+00  8.14179744995E+00  8.27863501918E+00  8.41777232581E+00
  8.55924801998E+00  8.70310140141E+00  8.84937243029E+00  8.99810173842E+00
  9.14933064043E+00  9.30310114533E+00  9.45945596814E+00  9.61843854177E+00
  9.78009302905E+00  9.94446433505E+00  1.01115981195E+01  1.02815408096E+01
  1.04543396127E+01  1.06300425295E+01  1.08086983676E+01  1.09903567548E+01
  1.11750681528E+01  1.13628838716E+01  1.15538560835E+01  1.17480378374E+01
  1.19454830740E+01  1.21462466405E+01  1.23503843059E+01  1.25579527763E+01
  1.27690097110E+01  1.29836137382E+01  1.32018244717E+01  1.34237025268E+01
  1.36493095378E+01  1.38787081748E+01  1.41119621610E+01  1.43491362909E+01
  1.45902964475E+01  1.48355096214E+01  1.50848439288E+01  1.53383686311E+01
  1.55961541532E+01  1.58582721040E+01  1.61247952957E+01  1.63957977642E+01
  1.66713547897E+01  1.69515429177E+01  1.72364399798E+01  1.75261251162E+01
  1.78206787966E+01  1.81201828435E+01  1.84247204544E+01  1.87343762250E+01
  1.90492361728E+01  1.93693877608E+01  1.96949199223E+01  2.00259230848E+01
  2.03624891958E+01  2.07047117480E+01  2.10526858055E+01  2.14065080301E+01
  2.17662767078E+01  2.21320917768E+01  2.25040548546E+01  2.28822692669E+01
  2.32668400755E+01  2.36578741082E+01  2.40554799881E+01  2.44597681637E+01
  2.48708509400E+01  2.52888425092E+01  2.57138589829E+01  2.61460184238E+01
  2.65854408790E+01  2.70322484133E+01  2.74865651425E+01  2.79485172689E+01
  2.84182331152E+01  2.88958431613E+01  2.93814800796E+01  2.98752787724E+01
  3.03773764092E+01  3.08879124647E+01  3.14070287579E+01  3.19348694910E+01
  3.24715812899E+01  3.30173132445E+01  3.35722169507E+01  3.41364465520E+01
  3.47101587823E+01  3.52935130099E+01  3.58866712814E+01  3.64897983667E+01
  3.71030618052E+01  3.77266319515E+01  3.83606820238E+01  3.90053881511E+01
  3.96609294226E+01  4.03274879372E+01  4.10052488545E+01  4.16944004457E+01
  4.23951341461E+01  4.31076446087E+01  4.38321297575E+01  4.45687908431E+01
  4.53178324983E+01  4.60794627950E+01  4.68538933021E+01  4.76413391442E+01
  4.84420190612E+01  4.92561554695E+01  5.00839745232E+01  5.09257061774E+01
  5.17815842520E+01  5.26518464962E+01  5.35367346552E+01  5.44364945370E+01
  5.53513760806E+01  5.62816334256E+01  5.72275249830E+01  5.81893135064E+01
  5.91672661655E+01  6.01616546201E+01  6.11727550956E+01  6.22008484597E+01
  6.32462203006E+01  6.43091610060E+01  6.53899658440E+01  6.64889350453E+01
  6.76063738860E+01  6.87425927731E+01  6.98979073302E+01  7.10726384855E+01
  7.22671125606E+01  7.34816613617E+01  7.47166222713E+01  7.59723383419E+01
  7.72491583916E+01  7.85474371009E+01  7.98675351112E+01  8.12098191248E+01
  8.25746620069E+01
  </PP_R>
  <PP_RAB>
  3.79950818981E-06  3.86336397975E-06  3.92829295120E-06  3.99431314039E-06
  4.06144288670E-06  4.12970083769E-06  4.19910595437E-06  4.26967751636E-06
  4.34143512735E-06  4.41439872045E-06  4.48858856380E-06  4.56402526617E-06
  4.64072978269E-06  4.71872342065E-06  4.79802784546E-06  4.87866508663E-06
  4.96065754392E-06  5.04402799354E-06  5.12879959447E-06  5.21499589494E-06
  5.30264083892E-06  5.39175877277E-06  5.48237445207E-06  5.57451304842E-06
  5.66820015645E-06  5.76346180097E-06  5.86032444417E-06  5.95881499295E-06
  6.05896080643E-06  6.16078970354E-06  6.26432997074E-06  6.36961036988E-06
  6.47666014618E-06  6.58550903640E-06  6.69618727703E-06  6.80872561273E-06
  6.92315530489E-06  7.03950814026E-06  7.15781643982E-06  7.27811306775E-06
  7.40043144056E-06  7.52480553635E-06  7.65126990429E-06  7.77985967417E-06
  7.91061056622E-06  8.04355890095E-06  8.17874160932E-06  8.31619624295E-06
  8.45596098457E-06  8.59807465861E-06  8.74257674200E-06  8.88950737516E-06
  9.03890737308E-06  9.19081823672E-06  9.34528216452E-06  9.50234206413E-06
  9.66204156431E-06  9.82442502704E-06  9.98953755990E-06  1.01574250285E-05
  1.03281340694E-05  1.05017121029E-05  1.06782073461E-05  1.08576688267E-05
  1.10401463962E-05  1.12256907441E-05  1.14143534115E-05  1.16061868061E-05
  1.18012442161E-05  1.19995798254E-05  1.22012487284E-05  1.24063069457E-05
  1.26148114391E-05  1.28268201279E-05  1.30423919047E-05  1.32615866521E-05
  1.34844652588E-05  1.37110896371E-05  1.39415227395E-05  1.41758285767E-05
  1.44140722353E-05  1.46563198955E-05  1.49026388499E-05  1.51530975220E-05
  1.54077654853E-05  1.56667134826E-05  1.59300134455E-05  1.61977385145E-05
  1.64699630595E-05  1.67467627001E-05  1.70282143269E-05  1.73143961228E-05
  1.76053875845E-05  1.79012695448E-05  1.82021241951E-05  1.85080351081E-05
  1.88190872609E-05  1.91353670590E-05  1.94569623598E-05  1.97839624975E-05
  2.01164583076E-05  2.04545421522E-05  2.07983079455E-05  2.11478511803E-05
  2.15032689542E-05  2.18646599966E-05  2.22321246963E-05  2.26057651291E-05
  2.29856850865E-05  2.33719901042E-05  2.37647874917E-05  2.41641863618E-05
  2.45702976614E-05  2.49832342015E-05  2.54031106896E-05  2.58300437607E-05
  2.62641520101E-05  2.67055560261E-05  2.71543784238E-05  2.76107438790E-05
  2.80747791629E-05  2.85466131770E-05  2.90263769894E-05  2.95142038711E-05
  3.00102293324E-05  3.05145911615E-05  3.10274294622E-05  3.15488866928E-05
  3.20791077058E-05  3.26182397884E-05  3.31664327029E-05  3.37238387287E-05
  3.42906127043E-05  3.48669120705E-05  3.54528969143E-05  3.60487300130E-05
  3.66545768796E-05  3.72706058088E-05  3.78969879237E-05  3.85338972234E-05
  3.91815106312E-05  3.98400080439E-05  4.05095723817E-05  4.11903896390E-05
  4.18826489360E-05  4.25865425714E-05  4.33022660759E-05  4.40300182661E-05
  4.47700012999E-05  4.55224207332E-05  4.62874855760E-05  4.70654083513E-05
  4.78564051539E-05  4.86606957100E-05  4.94785034389E-05  5.03100555147E-05
  5.11555829295E-05  5.20153205573E-05  5.28895072197E-05  5.37783857520E-05
  5.46822030706E-05  5.56012102416E-05  5.65356625508E-05  5.74858195743E-05
  5.84519452506E-05  5.94343079542E-05  6.04331805699E-05  6.14488405689E-05
  6.24815700853E-05  6.35316559952E-05  6.45993899959E-05  6.56850686869E-05
  6.67889936527E-05  6.79114715462E-05  6.90528141740E-05  7.02133385831E-05
  7.13933671489E-05  7.25932276646E-05  7.38132534325E-05  7.50537833566E-05
  7.63151620364E-05  7.75977398631E-05  7.89018731164E-05  8.02279240641E-05
  8.15762610621E-05  8.29472586572E-05  8.43412976909E-05  8.57587654051E-05
  8.72000555500E-05  8.86655684932E-05  9.01557113312E-05  9.16708980021E-05
  9.32115494007E-05  9.47780934957E-05  9.63709654484E-05  9.79906077334E-05
  9.96374702617E-05  1.01312010506E-04  1.03014693626E-04  1.04745992602E-04
  1.06506388360E-04  1.08296369911E-04  1.10116434484E-04  1.11967087663E-04
  1.13848843530E-04  1.15762224809E-04  1.17707763005E-04  1.19685998559E-04
  1.21697480994E-04  1.23742769066E-04  1.25822430926E-04  1.27937044270E-04
  1.30087196505E-04  1.32273484909E-04  1.34496516797E-04  1.36756909694E-04
  1.39055291501E-04  1.41392300672E-04  1.43768586391E-04  1.46184808754E-04
  1.48641638947E-04  1.51139759440E-04  1.53679864172E-04  1.56262658743E-04
  1.58888860613E-04  1.61559199299E-04  1.64274416579E-04  1.67035266698E-04
  1.69842516577E-04  1.72696946024E-04  1.75599347955E-04  1.78550528613E-04
  1.81551307787E-04  1.84602519048E-04  1.87705009973E-04  1.90859642386E-04
  1.94067292593E-04  1.97328851630E-04  2.00645225505E-04  2.04017335455E-04
  2.07446118199E-04  2.10932526199E-04  2.14477527924E-04  2.18082108118E-04
  2.21747268079E-04  2.25474025928E-04  2.29263416902E-04  2.33116493632E-04
  2.37034326442E-04  2.41018003645E-04  2.45068631843E-04  2.49187336238E-04
  2.53375260938E-04  2.57633569285E-04  2.61963444169E-04  2.66366088361E-04
  2.70842724846E-04  2.75394597162E-04  2.80022969749E-04  2.84729128294E-04
  2.89514380095E-04  2.94380054418E-04  2.99327502872E-04  3.04358099779E-04
  3.09473242560E-04  3.14674352120E-04  3.19962873246E-04  3.25340275005E-04
  3.30808051154E-04  3.36367720557E-04  3.42020827600E-04  3.47768942627E-04
  3.53613662375E-04  3.59556610414E-04  3.65599437601E-04  3.71743822539E-04
  3.77991472039E-04  3.84344121601E-04  3.90803535891E-04  3.97371509231E-04
  4.04049866102E-04  4.10840461644E-04  4.17745182178E-04  4.24765945727E-04
  4.31904702548E-04  4.39163435674E-04  4.46544161468E-04  4.54048930178E-04
  4.61679826510E-04  4.69438970207E-04  4.77328516636E-04  4.85350657390E-04
  4.93507620891E-04  5.01801673016E-04  5.10235117721E-04  5.18810297684E-04
  5.27529594955E-04  5.36395431616E-04  5.45410270457E-04  5.54576615659E-04
  5.63897013486E-04  5.73374052998E-04  5.83010366768E-04  5.92808631610E-04
  6.02771569329E-04  6.12901947471E-04  6.23202580094E-04  6.33676328553E-04
  6.44326102289E-04  6.55154859640E-04  6.66165608665E-04  6.77361407977E-04
  6.88745367590E-04  7.00320649790E-04  7.12090470006E-04  7.24058097710E-04
  7.36226857319E-04  7.48600129122E-04  7.61181350220E-04  7.73974015475E-04
  7.86981678490E-04  8.00207952586E-04  8.13656511815E-04  8.27331091974E-04
  8.41235491644E-04  8.55373573250E-04  8.69749264125E-04  8.84366557611E-04
  8.99229514161E-04  9.14342262469E-04  9.29709000618E-04  9.45333997246E-04
  9.61221592729E-04  9.77376200391E-04  9.93802307726E-04  1.01050447765E-03
  1.02748734976E-03  1.04475564162E-03  1.06231415011E-03  1.08016775269E-03
  1.09832140882E-03  1.11678016128E-03  1.13554913764E-03  1.15463355162E-03
  1.17403870456E-03  1.19376998692E-03  1.21383287972E-03  1.23423295613E-03
  1.25497588297E-03  1.27606742228E-03  1.29751343298E-03  1.31931987241E-03
  1.34149279807E-03  1.36403836925E-03  1.38696284874E-03  1.41027260461E-03
  1.43397411194E-03  1.45807395463E-03  1.48257882724E-03  1.50749553683E-03
  1.53283100488E-03  1.55859226918E-03  1.58478648579E-03  1.61142093106E-03
  1.63850300362E-03  1.66604022644E-03  1.69404024892E-03  1.72251084903E-03
  1.75145993545E-03  1.78089554979E-03  1.81082586878E-03  1.84125920660E-03
  1.87220401716E-03  1.90366889642E-03  1.93566258484E-03  1.96819396975E-03
  2.00127208787E-03  2.03490612778E-03  2.06910543246E-03  2.10387950197E-03
  2.13923799597E-03  2.17519073650E-03  2.21174771068E-03  2.24891907343E-03
  2.28671515039E-03  2.32514644071E-03  2.36422361999E-03  2.40395754325E-03
  2.44435924796E-03  2.48543995706E-03  2.52721108214E-03  2.56968422654E-03
  2.61287118864E-03  2.65678396509E-03  2.70143475417E-03  2.74683595917E-03
  2.79300019182E-03  2.83994027581E-03  2.88766925036E-03  2.93620037383E-03
  2.98554712739E-03  3.03572321880E-03  3.08674258617E-03  3.13861940189E-03
  3.19136807652E-03  3.24500326280E-03  3.29953985974E-03  3.35499301674E-03
  3.41137813782E-03  3.46871088588E-03  3.52700718704E-03  3.58628323510E-03
  3.64655549601E-03  3.70784071245E-03  3.77015590848E-03  3.83351839429E-03
  3.89794577097E-03  3.96345593542E-03  4.03006708534E-03  4.09779772426E-03
  4.16666666667E-03  4.23669304328E-03  4.30789630631E-03  4.38029623490E-03
  4.45391294061E-03  4.52876687301E-03  4.60487882532E-03  4.68226994024E-03
  4.76096171582E-03  4.84097601137E-03  4.92233505361E-03  5.00506144279E-03
  5.08917815900E-03  5.17470856854E-03  5.26167643039E-03  5.35010590287E-03
  5.44002155027E-03  5.53144834975E-03  5.62441169823E-03  5.71893741946E-03
  5.81505177119E-03  5.91278145247E-03  6.01215361106E-03  6.11319585098E-03
  6.21593624017E-03  6.32040331828E-03  6.42662610463E-03  6.53463410621E-03
  6.64445732595E-03  6.75612627101E-03  6.86967196125E-03  6.98512593788E-03
  7.10252027218E-03  7.22188757445E-03  7.34326100304E-03  7.46667427357E-03
  7.59216166829E-03  7.71975804564E-03  7.84949884985E-03  7.98142012089E-03
  8.11555850439E-03  8.25195126189E-03  8.39063628113E-03  8.53165208662E-03
  8.67503785033E-03  8.82083340255E-03  8.96907924300E-03  9.11981655202E-03
  9.27308720205E-03  9.42893376927E-03  9.58739954539E-03  9.74852854969E-03
  9.91236554128E-03  1.00789560315E-02  1.02483462965E-02  1.04205833903E-02
  1.05957151575E-02  1.07737902471E-02  1.09548581256E-02  1.11389690905E-02
  1.13261742852E-02  1.15165257123E-02  1.17100762483E-02  1.19068796586E-02
  1.21069906120E-02  1.23104646962E-02  1.25173584331E-02  1.27277292945E-02
  1.29416357181E-02  1.31591371237E-02  1.33802939298E-02  1.36051675703E-02
  1.38338205114E-02  1.40663162694E-02  1.43027194280E-02  1.45430956561E-02
  1.47875117265E-02  1.50360355342E-02  1.52887361151E-02  1.55456836654E-02
  1.58069495612E-02  1.60726063779E-02  1.63427279109E-02  1.66173891955E-02
  1.68966665285E-02  1.71806374886E-02  1.74693809585E-02  1.77629771465E-02
  1.80615076091E-02  1.83650552733E-02  1.86737044597E-02  1.89875409064E-02
  1.93066517921E-02  1.96311257608E-02  1.99610529462E-02  2.02965249969E-02
  2.06376351016E-02  2.09844780156E-02  2.13371500861E-02  2.16957492799E-02
  2.20603752103E-02  2.24311291645E-02  2.28081141322E-02  2.31914348338E-02
  2.35811977497E-02  2.39775111500E-02  2.43804851243E-02  2.47902316122E-02
  2.52068644351E-02  2.56304993268E-02  2.60612539664E-02  2.64992480108E-02
  2.69446031279E-02  2.73974430302E-02  2.78578935095E-02  2.83260824717E-02
  2.88021399723E-02  2.92861982525E-02  2.97783917760E-02  3.02788572666E-02
  3.07877337455E-02  3.13051625707E-02  3.18312874757E-02  3.23662546096E-02
  3.29102125779E-02  3.34633124836E-02  3.40257079690E-02  3.45975552588E-02
  3.51790132030E-02  3.57702433216E-02  3.63714098488E-02  3.69826797794E-02
  3.76042229143E-02  3.82362119085E-02  3.88788223186E-02  3.95322326515E-02
  4.01966244143E-02  4.08721821647E-02  4.15590935617E-02  4.22575494187E-02
  4.29677437555E-02  4.36898738530E-02  4.44241403075E-02  4.51707470867E-02
  4.59299015860E-02  4.67018146867E-02  4.74867008139E-02  4.82847779968E-02
  4.90962679284E-02  4.99213960279E-02  5.07603915029E-02  5.16134874131E-02
  5.24809207349E-02  5.33629324278E-02  5.42597675005E-02  5.51716750798E-02
  5.60989084792E-02  5.70417252694E-02  5.80003873501E-02  5.89751610224E-02
  5.99663170631E-02  6.09741307997E-02  6.19988821870E-02  6.30408558846E-02
  6.41003413364E-02  6.51776328508E-02  6.62730296823E-02  6.73868361148E-02
  6.85193615462E-02  6.96709205742E-02  7.08418330837E-02  7.20324243357E-02
  7.32430250576E-02  7.44739715352E-02  7.57256057060E-02  7.69982752542E-02
  7.82923337073E-02  7.96081405343E-02  8.09460612456E-02  8.23064674943E-02
  8.36897371799E-02  8.50962545529E-02  8.65264103216E-02  8.79806017606E-02
  8.94592328214E-02  9.09627142443E-02  9.24914636727E-02  9.40459057691E-02
  9.56264723329E-02  9.72336024206E-02  9.88677424675E-02  1.00529346412E-01
  1.02218875821E-01  1.03936800020E-01  1.05683596220E-01  1.07459749655E-01
  1.09265753711E-01  1.11102110068E-01  1.12969328836E-01  1.14867928700E-01
  1.16798437061E-01  1.18761390182E-01  1.20757333343E-01  1.22786820984E-01
  1.24850416864E-01  1.26948694219E-01  1.29082235916E-01  1.31251634620E-01
  1.33457492955E-01  1.35700423674E-01  1.37981049828E-01  1.40300004938E-01
  1.42657933175E-01  1.45055489532E-01  1.47493340013E-01  1.49972161815E-01
  1.52492643515E-01  1.55055485264E-01  1.57661398977E-01  1.60311108538E-01
  1.63005349992E-01  1.65744871759E-01  1.68530434834E-01  1.71362813002E-01
  1.74242793053E-01  1.77171175000E-01  1.80148772302E-01  1.83176412088E-01
  1.86254935389E-01  1.89385197369E-01  1.92568067566E-01  1.95804430132E-01
  1.99095184075E-01  2.02441243517E-01  2.05843537940E-01  2.09303012446E-01
  2.12820628024E-01  2.16397361812E-01  2.20034207369E-01  2.23732174954E-01
  2.27492291805E-01  2.31315602421E-01  2.35203168859E-01  2.39156071023E-01
  2.43175406966E-01  2.47262293197E-01  2.51417864989E-01  2.55643276693E-01
  2.59939702062E-01  2.64308334576E-01  2.68750387770E-01  2.73267095579E-01
  2.77859712671E-01  2.82529514803E-01  2.87277799172E-01  2.92105884778E-01
  2.97015112785E-01  3.02006846900E-01  3.07082473748E-01  3.12243403258E-01
  3.17491069054E-01  3.22826928855E-01  3.28252464879E-01  3.33769184254E-01
  3.39378619437E-01  3.45082328642E-01  3.50881896267E-01  3.56778933343E-01
  3.62775077971E-01  3.68871995787E-01  3.75071380419E-01  3.81374953957E-01
  3.87784467434E-01  3.94301701312E-01  4.00928465976E-01  4.07666602237E-01
  4.14517981841E-01  4.21484507995E-01  4.28568115889E-01  4.35770773238E-01
  4.43094480826E-01  4.50541273063E-01  4.58113218551E-01  4.65812420656E-01
  4.73641018095E-01  4.81601185530E-01  4.89695134168E-01  4.97925112382E-01
  5.06293406328E-01  5.14802340587E-01  5.23454278807E-01  5.32251624358E-01
  5.41196821006E-01  5.50292353584E-01  5.59540748687E-01  5.68944575374E-01