<UPF version="2.0.1">
   <PP_INFO>
         UPF file from ATOMPAW code with following input
           Nd  60
           GGA-PBE  loggrid 700 scalarrelativistic logderivrange -8 8 500
           6 5 5 4 0
           5 2 1
           4 3 3
           0 0 0
           c
           c
           c
           c
           v
           v
           c
           c
           c
           v
           c
           c
           v
           v
           3
           2.45 2.041 2.45 2.45
           n
           y
           2.0
           n
           y
           2.0
           n
           y
           2.0
           n
           VANDERBILT BESSELSHAPE
           4 0.0
           2.41
           2.41
           2.41
           2.41
           2.41
           2.41
           2.41
           2.41
           
           # UPDATE 05/03/2021: 
           For compatibility issues, mesh_size in the header below is made same as
           mesh value. 
           
  </PP_INFO>
  <!--                               -->
  <!-- END OF HUMAN READABLE SECTION -->
  <PP_HEADER generated="Generated using ATOMPAW code"
             author="   "
             date=" 08/04/2014, 14:51:08.870"
             element="Nd"
             pseudo_type="PAW"
             relativistic="scalar"
             is_ultrasoft="T"
             is_paw="T"
             is_coulomb="F"
             has_so="F"
             has_wfc="T"
             has_gipaw="T"
             paw_as_gipaw="T"
             core_correction="T"
             functional="SLA PW PBX PBC"
             z_valence="14.000"
             l_max="3"
             l_max_rho="6"
             mesh_size="   1105"
             number_of_wfc="     8"
             number_of_proj=" 8"
                                    /> 
<PP_MESH dx=" 1.2500000000000E-02" mesh="  1105" xmin="-7.0000000000000E+00" zmesh=" 6.0000000000000E+01">
 <PP_R type="real" size="  1105" columns="3">
  1.51980327592419380E-05  1.53892004778170369E-05  1.55827727902763689E-05
  1.57787799426875662E-05  1.59772525615669967E-05  1.61782216586651470E-05
  1.63817186358123107E-05  1.65877752898251899E-05  1.67964238174751738E-05
  1.70076968205192428E-05  1.72216273107939508E-05  1.74382487153736423E-05
  1.76575948817935010E-05  1.78797000833382817E-05  1.81045990243976321E-05
  1.83323268458886380E-05  1.85629191307467217E-05  1.87964119094855388E-05
  1.90328416658267931E-05  1.92722453424009611E-05  1.95146603465195747E-05
  1.97601245560202124E-05  2.00086763251850131E-05  2.02603544907335770E-05
  2.05151983778913498E-05  2.07732478065341589E-05  2.10345430974102434E-05
  2.12991250784404068E-05  2.15670350910974662E-05  2.18383149968660001E-05
  2.21130071837831906E-05  2.23911545730621132E-05  2.26728006257982320E-05
  2.29579893497602862E-05  2.32467653062666460E-05  2.35391736171480285E-05
  2.38352599717979085E-05  2.41350706343115933E-05  2.44386524507150495E-05
  2.47460528562847820E-05  2.50573198829595381E-05  2.53725021668455246E-05
  2.56916489558158380E-05  2.60148101172055390E-05  2.63420361456036165E-05
  2.66733781707427374E-05  2.70088879654884442E-05  2.73486179539287670E-05
  2.76926212195655637E-05  2.80409515136090195E-05  2.83936632633762325E-05
  2.87508115807957055E-05  2.91124522710186624E-05  2.94786418411386768E-05
  2.98494375090211636E-05  3.02248972122435877E-05  3.06050796171484547E-05
  3.09900441280100159E-05  3.13798508963162895E-05  3.17745608301679415E-05
  3.21742356037951546E-05  3.25789376671944511E-05  3.29887302558866139E-05
  3.34036774007973191E-05  3.38238439382622350E-05  3.42492955201576513E-05
  3.46800986241588207E-05  3.51163205641272320E-05  3.55580295006284694E-05
  3.60052944515825741E-05  3.64581853030480817E-05  3.69167728201419504E-05
  3.73811286580967225E-05  3.78513253734567821E-05  3.83274364354155994E-05
  3.88095362372952300E-05  3.92977001081705474E-05  3.97920043246395585E-05
  4.02925261227417270E-05  4.07993437100263829E-05  4.13125362777726438E-05
  4.18321840133633122E-05  4.23583681128143023E-05  4.28911707934616690E-05
  4.34306753068083057E-05  4.39769659515320256E-05  4.45301280866575072E-05
  4.50902481448937765E-05  4.56574136461394698E-05  4.62317132111581466E-05
  4.68132365754252118E-05  4.74020746031494615E-05  4.79983193014707179E-05
  4.86020638348361257E-05  4.92134025395574439E-05  4.98324309385510044E-05
  5.04592457562635916E-05  5.10939449337857187E-05  5.17366276441551419E-05
  5.23873943078530027E-05  5.30463466084944490E-05  5.37135875087171034E-05
  5.43892212662691388E-05  5.50733534502997012E-05  5.57660909578545306E-05
  5.64675420305785290E-05  5.71778162716289078E-05  5.78970246628008931E-05
  5.86252795818688072E-05  5.93626948201454960E-05  6.01093856002621731E-05
  6.08654685941723903E-05  6.16310619413822059E-05  6.24062852674096683E-05
  6.31912597024767938E-05  6.39861079004360567E-05  6.47909540579354995E-05
  6.56059239338247180E-05  6.64311448688048470E-05  6.72667458053259740E-05
  6.81128573077344478E-05  6.89696115826739453E-05  6.98371424997429921E-05
  7.07155856124123391E-05  7.16050781792056660E-05  7.25057591851461565E-05
  7.34177693634734341E-05  7.43412512176333642E-05  7.52763490435444361E-05
  7.62232089521445462E-05  7.71819788922207596E-05  7.81528086735268438E-05
  7.91358499901912896E-05  8.01312564444197587E-05  8.11391835704960540E-05
  8.21597888590841995E-05  8.31932317818369430E-05  8.42396738163135681E-05
  8.52992784712108506E-05  8.63722113119120796E-05  8.74586399863564059E-05
  8.85587342512345895E-05  8.96726659985136806E-05  9.08006092822954177E-05
  9.19427403460128565E-05  9.30992376499683325E-05  9.42702818992184632E-05
  9.54560560718097545E-05  9.66567454473690253E-05  9.78725376360541939E-05
  9.91036226078682321E-05  1.00350192722342642E-04  1.01612442758593964E-04
  1.02890569945758353E-04  1.04184773993809356E-04  1.05495257124762446E-04
  1.06822224104273050E-04  1.08165882273631450E-04  1.09526441582160209E-04
  1.10904114620019565E-04  1.12299116651424445E-04  1.13711665648280456E-04
  1.15141982324242200E-04  1.16590290169200185E-04  1.18056815484202094E-04
  1.19541787416811644E-04  1.21045437996914864E-04  1.22568002172973941E-04
  1.24109717848738962E-04  1.25670825920421255E-04  1.27251570314332698E-04
  1.28852198025001174E-04  1.30472959153762891E-04  1.32114106947841577E-04
  1.33775897839919340E-04  1.35458591488203526E-04  1.37162450817000510E-04
  1.38887742057796829E-04  1.40634734790858851E-04  1.42403701987355789E-04
  1.44194920052010566E-04  1.46008668866290468E-04  1.47845231832137626E-04
  1.49704895916251928E-04  1.51587951694930393E-04  1.53494693399469005E-04
  1.55425418962138769E-04  1.57380430062736848E-04  1.59360032175725076E-04
  1.61364534617961550E-04  1.63394250597030460E-04  1.65449497260183518E-04
  1.67530595743893091E-04  1.69637871224031139E-04  1.71771652966679159E-04
  1.73932274379575065E-04  1.76120073064210919E-04  1.78335390868582136E-04
  1.80578573940602514E-04  1.82849972782191453E-04  1.85149942304038440E-04
  1.87478841881061077E-04  1.89837035408556287E-04  1.92224891359060355E-04
  1.94642782839924203E-04  1.97091087651610295E-04  1.99570188346727038E-04
  2.02080472289801658E-04  2.04622331717807255E-04  2.07196163801451528E-04
  2.09802370707233311E-04  2.12441359660284473E-04  2.15113543007997872E-04
  2.17819338284457991E-04  2.20559168275682343E-04  2.23333461085680471E-04
  2.26142650203348903E-04  2.28987174570202391E-04  2.31867478648960332E-04
  2.34784012492995578E-04  2.37737231816654269E-04  2.40727598066464639E-04
  2.43755578493237024E-04  2.46821646225073332E-04  2.49926280341295295E-04
  2.53069965947299116E-04  2.56253194250357188E-04  2.59476462636368146E-04
  2.62740274747574757E-04  2.66045140561260349E-04  2.69391576469431228E-04
  2.72780105359507116E-04  2.76211256696020887E-04  2.79685566603349312E-04
  2.83203577949484703E-04  2.86765840430856388E-04  2.90372910658225265E-04
  2.94025352243652708E-04  2.97723735888567214E-04  3.01468639472938517E-04
  3.05260648145569619E-04  3.09100354415531406E-04  3.12988358244740180E-04
  3.16925267141704285E-04  3.20911696256448822E-04  3.24948268476633266E-04
  3.29035614524879696E-04  3.33174373057323848E-04  3.37365190763406543E-04
  3.41608722466920950E-04  3.45905631228329022E-04  3.50256588448367198E-04
  3.54662273972952940E-04  3.59123376199412859E-04  3.63640592184046193E-04
  3.68214627751040720E-04  3.72846197602760029E-04  3.77536025431416181E-04
  3.82284844032148847E-04  3.87093395417526279E-04  3.91962430933485116E-04
  3.96892711376731319E-04  4.01885007113614594E-04  4.06940098200500578E-04
  4.12058774505656635E-04  4.17241835832669135E-04  4.22490092045415752E-04
  4.27804363194607255E-04  4.33185479645922474E-04  4.38634282209755214E-04
  4.44151622272591416E-04  4.49738361930041421E-04  4.55395374121542813E-04
  4.61123542766759620E-04  4.66923762903697032E-04  4.72796940828551667E-04
  4.78743994237323879E-04  4.84765852369207942E-04  4.90863456151788128E-04
  4.97037758348061842E-04  5.03289723705308326E-04  5.09620329105834940E-04
  5.16030563719614829E-04  5.22521429158848182E-04  5.29093939634465841E-04
  5.35749122114601169E-04  5.42488016485057176E-04  5.49311675711789391E-04
  5.56221166005434631E-04  5.63217566987909285E-04  5.70301971861100548E-04
  5.77475487577683777E-04  5.84739235014083958E-04  5.92094349145616105E-04
  5.99541979223827768E-04  6.07083288956070566E-04  6.14719456687333574E-04
  6.22451675584360367E-04  6.30281153822084741E-04  6.38209114772411018E-04
  6.46236797195366805E-04  6.54365455432663655E-04  6.62596359603688620E-04
  6.70930795803964205E-04  6.79370066306103724E-04  6.87915489763292519E-04
  6.96568401415331912E-04  7.05330153297271901E-04  7.14202114450669797E-04
  7.23185671137506242E-04  7.32282227056790368E-04  7.41493203563892058E-04
  7.50820039892630348E-04  7.60264193380156801E-04  7.69827139694668648E-04
  7.79510373065983022E-04  7.89315406519015459E-04  7.99243772110191258E-04
  8.09297021166832881E-04  8.19476724529559692E-04  8.29784472797732357E-04
  8.40221876577989602E-04  8.50790566735906933E-04  8.61492194650823506E-04
  8.72328432473873025E-04  8.83300973389263347E-04  8.94411531878835583E-04
  9.05661843989958204E-04  9.17053667606787591E-04  9.28588782724939924E-04
  9.40268991729622540E-04  9.52096119677254909E-04  9.64072014580641444E-04
  9.76198547697725992E-04  9.88477613823978600E-04  1.00091113158846576E-03
  1.01350104375363286E-03  1.02624931751887070E-03  1.03915794482789103E-03
  1.05222894267997303E-03  1.06546435344512616E-03  1.07886624518320918E-03
  1.09243671196707277E-03  1.10617787420976064E-03  1.12009187899582917E-03
  1.13418090041683662E-03  1.14844713991104296E-03  1.16289282660739452E-03
  1.17752021767382714E-03  1.19233159866995370E-03  1.20732928390419100E-03
  1.22251561679536888E-03  1.23789297023889832E-03  1.25346374697754060E-03
  1.26923037997683872E-03  1.28519533280527861E-03  1.30136110001921948E-03
  1.31773020755267820E-03  1.33430521311200963E-03  1.35108870657555400E-03
  1.36808331039831336E-03  1.38529168002170938E-03  1.40271650428850660E-03
  1.42036050586294795E-03  1.43822644165617487E-03  1.45631710325700640E-03
  1.47463531736812198E-03  1.49318394624774523E-03  1.51196588815687583E-03
  1.53098407781214821E-03  1.55024148684439157E-03  1.56974112426294470E-03
  1.58948603692582761E-03  1.60947931001581448E-03  1.62972406752250076E-03
  1.65022347273043827E-03  1.67098072871339569E-03  1.69199907883485143E-03
  1.71328180725477397E-03  1.73483223944277741E-03  1.75665374269773898E-03
  1.77874972667393678E-03  1.80112364391382196E-03  1.82377899038748304E-03
  1.84671930603889944E-03  1.86994817533906225E-03  1.89346922784606282E-03
  1.91728613877220708E-03  1.94140262955828360E-03  1.96582246845504287E-03
  1.99054947111199348E-03  2.01558750117361140E-03  2.04094047088303242E-03
  2.06661234169335482E-03  2.09260712488662211E-03  2.11892888220059335E-03
  2.14558172646340389E-03  2.17256982223619499E-03  2.19989738646383807E-03
  2.22756868913384165E-03  2.25558805394354515E-03  2.28395985897570774E-03
  2.31268853738258832E-03  2.34177857807863626E-03  2.37123452644189469E-03
  2.40106098502422104E-03  2.43126261427045699E-03  2.46184413324661419E-03
  2.49281032037725189E-03  2.52416601419211146E-03  2.55591611408214096E-03
  2.58806558106505031E-03  2.62061943856046120E-03  2.65358277317483907E-03
  2.68696073549628146E-03  2.72075854089930689E-03  2.75498147035977596E-03
  2.78963487128004251E-03  2.82472415832450306E-03  2.86025481426564754E-03
  2.89623239084075244E-03  2.93266250961935837E-03  2.96955086288164163E-03
  3.00690321450784769E-03  3.04472540087891283E-03  3.08302333178840475E-03
  3.12180299136595061E-03  3.16107043901225513E-03  3.20083181034590356E-03
  3.24109331816206095E-03  3.28186125340323423E-03  3.32314198614225287E-03
  3.36494196657759117E-03  3.40726772604123479E-03  3.45012587801921296E-03
  3.49352311918496366E-03  3.53746623044571846E-03  3.58196207800201083E-03
  3.62701761442055020E-03  3.67263987972056647E-03  3.71883600247383027E-03
  3.76561320091851458E-03  3.81297878408704168E-03  3.86094015294814828E-03
  3.90950480156329692E-03  3.95868031825763553E-03  4.00847438680570264E-03
  4.05889478763201295E-03  4.10994939902677679E-03  4.16164619837689539E-03
  4.21399326341244124E-03  4.26699877346883513E-03  4.32067101076486024E-03
  4.37501836169679019E-03  4.43004931814877916E-03  4.48577247881973111E-03
  4.54219655056687776E-03  4.59933034976621989E-03  4.65718280369012416E-03
  4.71576295190221772E-03  4.77507994766983475E-03  4.83514305939425609E-03
  4.89596167205888239E-03  4.95754528869567831E-03  5.01990353187003850E-03
  5.08304614518432108E-03  5.14698299480033199E-03  5.21172407098089829E-03
  5.27727948965088945E-03  5.34365949397784794E-03  5.41087445597249542E-03
  5.47893487810940331E-03  5.54785139496799442E-03  5.61763477489424148E-03
  5.68829592168323180E-03  5.75984587628290863E-03  5.83229581851925707E-03
  5.90565706884314725E-03  5.97994109009919624E-03  6.05515948931685793E-03
  6.13132401952403913E-03  6.20844658158355069E-03  6.28653922605261744E-03
  6.36561415506581817E-03  6.44568372424169159E-03  6.52676044461331616E-03
  6.60885698458321593E-03  6.69198617190277980E-03  6.77616099567665553E-03
  6.86139460839231292E-03  6.94770032797513946E-03  7.03509163986942593E-03
  7.12358219914544736E-03  7.21318583263312520E-03  7.30391654108249275E-03
  7.39578850135133147E-03  7.48881606862036083E-03  7.58301377863622797E-03
  7.67839634998276812E-03  7.77497868638081166E-03  7.87277587901691160E-03
  7.97180320890140265E-03  8.07207614925604423E-03  8.17361036793177315E-03
  8.27642172985683031E-03  8.38052629951568234E-03  8.48594034345915432E-03
  8.59268033284607199E-03  8.70076294601693917E-03  8.81020507109996250E-03
  8.92102380864983821E-03  9.03323647431978662E-03  9.14686060156711007E-03
  9.26191394439286088E-03  9.37841448011593644E-03  9.49638041218204935E-03
  9.61583017300811187E-03  9.73678242686226714E-03  9.85925607278025778E-03
  9.98327024751843005E-03  1.01088443285438905E-02  1.02359979370622977E-02
  1.03647509410836718E-02  1.04951234585268401E-02  1.06271358603628966E-02
  1.07608087737982010E-02  1.08961630854974567E-02  1.10332199448472373E-02
  1.11720007672606609E-02  1.13125272375235800E-02  1.14548213131828707E-02
  1.15989052279773693E-02  1.17448014953118948E-02  1.18925329117750486E-02
  1.20421225607012117E-02  1.21935938157773632E-02  1.23469703446953006E-02
  1.25022761128497015E-02  1.26595353870828150E-02  1.28187727394761843E-02
  1.29800130511900820E-02  1.31432815163512792E-02  1.33086036459896216E-02
  1.34760052720242149E-02  1.36455125512997075E-02  1.38171519696733396E-02
  1.39909503461534586E-02  1.41669348370899745E-02  1.43451329404176379E-02
  1.45255724999526423E-02  1.47082817097432574E-02  1.48932891184752631E-02
  1.50806236339326646E-02  1.52703145275146345E-02  1.54623914388092257E-02
  1.56568843802245977E-02  1.58538237416785688E-02  1.60532402953470349E-02
  1.62551652004722207E-02  1.64596300082313698E-02  1.66666666666666664E-02
  1.68763075256772449E-02  1.70885853420738205E-02  1.73035332846970917E-02
  1.75211849396004135E-02  1.77415743152976556E-02  1.79647358480771943E-02
  1.81907044073825325E-02  1.84195153012608019E-02  1.86512042818796873E-02
  1.88858075511137737E-02  1.91233617662012086E-02  1.93639040454713918E-02
  1.96074719741448529E-02  1.98541036102059844E-02  2.01038374903496769E-02
  2.03567126360028362E-02  2.06127685594214190E-02  2.08720452698644178E-02
  2.11345832798453398E-02  2.14004236114623582E-02  2.16696078028081884E-02
  2.19421779144603653E-02  2.22181765360533919E-02  2.24976467929334026E-02
  2.27806323528966063E-02  2.30671774330125263E-02  2.33573268065328972E-02
  2.36511258098876347E-02  2.39486203497687559E-02  2.42498569103033537E-02
  2.45548825603169284E-02  2.48637449606878454E-02  2.51764923717945552E-02
  2.54931736610563321E-02  2.58138383105688853E-02  2.61385364248361528E-02
  2.64673187385990674E-02  2.68002366247630623E-02  2.71373421024251847E-02
  2.74786878450021359E-02  2.78243271884607186E-02  2.81743141396515323E-02
  2.85287033847477570E-02  2.88875502977899400E-02  2.92509109493383074E-02
  2.96188421152339780E-02  2.99914012854701553E-02  3.03686466731751675E-02
  3.07506372237083513E-02  3.11374326238703716E-02  3.15290933112295016E-02
  3.19256804835649430E-02  3.23272561084292503E-02  3.27338829328308115E-02
  3.31456244930381991E-02  3.35625451245079517E-02  3.39847099719369286E-02
  3.44121849994414586E-02  3.48450370008642832E-02  3.52833336102112496E-02
  3.57271433122193297E-02  3.61765354530573860E-02  3.66315802511617203E-02
  3.70923488082078173E-02  3.75589131202201457E-02  3.80313460888217353E-02
  3.85097215326250797E-02  3.89941141987665343E-02  3.94845997745856964E-02
  3.99812548994516320E-02  4.04841571767381447E-02  4.09933851859491799E-02
  4.15090184949972046E-02  4.20311376726358252E-02  4.25598243010487792E-02
  4.30951609885974474E-02  4.36372313827283614E-02  4.41861201830434647E-02
  4.47419131545345392E-02  4.53046971409840835E-02  4.58745600785351176E-02
  4.64515910094308593E-02  4.70358800959283230E-02  4.76275186343860929E-02
  4.82265990695293495E-02  4.88332150088950784E-02  4.94474612374578085E-02
  5.00694337324405353E-02  5.06992296783110932E-02  5.13369474819671823E-02
  5.19826867881132554E-02  5.26365484948294812E-02  5.32986347693379103E-02
  5.39690490639660528E-02  5.46478961323112258E-02  5.53352820456091896E-02
  5.60313142093071745E-02  5.67361013798469635E-02  5.74497536816579515E-02
  5.81723826243640205E-02  5.89041011202078926E-02  5.96450235016930050E-02
  6.03952655394490098E-02  6.11549444603207773E-02  6.19241789656850630E-02
  6.27030892499985809E-02  6.34917970195777032E-02  6.42904255116162199E-02
  6.50990995134409084E-02  6.59179453820096239E-02  6.67470910636554782E-02
  6.75866661140779451E-02  6.84368017185868482E-02  6.92976307126001723E-02
  7.01692876023993356E-02  7.10519085861470306E-02  7.19456315751674097E-02
  7.28505962154959441E-02  7.37669439096989704E-02  7.46948178389677392E-02
  7.56343629854917959E-02  7.65857261551114998E-02  7.75490560002578128E-02
  7.85245030431790808E-02  7.95122196994600405E-02  8.05123603018380596E-02
  8.15250811243167645E-02  8.25505404065852155E-02  8.35888983787427126E-02
  8.46403172863346848E-02  8.57049614157048556E-02  8.67829971196641681E-02
  8.78745928434848250E-02  8.89799191512196663E-02  9.00991487523527812E-02
  9.12324565287867539E-02  9.23800195621670706E-02  9.35420171615525819E-02
  9.47186308914324676E-02  9.59100446000955148E-02  9.71164444483579997E-02
  9.83380189386502956E-02  9.95749589444720334E-02  1.00827457740215828E-01
  1.02095711031366443E-01  1.03379916985081186E-01  1.04680276261152769E-01
  1.05996992043363825E-01  1.07330270071234399E-01  1.08680318672168541E-01
  1.10047348794007238E-01  1.11431574037987868E-01  1.12833210692121225E-01
  1.14252477764986385E-01  1.15689597019950588E-01  1.17144793009821682E-01
  1.18618293111933282E-01  1.20110327563674416E-01  1.21621129498463945E-01
  1.23150934982177510E-01  1.24699983050034768E-01  1.26268515743947485E-01
  1.27856778150340467E-01  1.29465018438446294E-01  1.31093487899081540E-01
  1.32742440983912996E-01  1.34412135345214595E-01  1.36102831876127428E-01
  1.37814794751424580E-01  1.39548291468787750E-01  1.41303592890606372E-01
  1.43080973286298263E-01  1.44880710375166699E-01  1.46703085369793540E-01
  1.48548383019978941E-01  1.50416891657235513E-01  1.52308903239838783E-01
  1.54224713398448149E-01  1.56164621482298926E-01  1.58128930605975437E-01
  1.60117947696775204E-01  1.62131983542664782E-01  1.64171352840842999E-01
  1.66236374246912122E-01  1.68327370424667555E-01  1.70444668096516844E-01
  1.72588598094528256E-01  1.74759495412126181E-01  1.76957699256433509E-01
  1.79183553101272569E-01  1.81437404740835806E-01  1.83719606344026759E-01
  1.86030514509489403E-01  1.88370490321326495E-01  1.90739899405518692E-01
  1.93139111987056716E-01  1.95568502947786882E-01  1.98028451884989909E-01
  2.00519343170692310E-01  2.03041566011724545E-01  2.05595514510537786E-01
  2.08181587726780221E-01  2.10800189739653698E-01  2.13451729711050697E-01
  2.16136621949485547E-01  2.18855285974833808E-01  2.21608146583879811E-01
  2.24395633916695147E-01  2.27218183523846068E-01  2.30076236434451575E-01
  2.32970239225094133E-01  2.35900644089596795E-01  2.38867908909682486E-01
  2.41872497326515418E-01  2.44914878813149023E-01  2.47995528747880833E-01
  2.51114928488529843E-01  2.54273565447653005E-01  2.57471933168700429E-01
  2.60710531403136214E-01  2.63989866188523881E-01  2.67310449927594618E-01
  2.70672801468314295E-01  2.74077446184951057E-01  2.77524916060169047E-01
  2.81015749768150802E-01  2.84550492758764373E-01  2.88129697342794422E-01
  2.91753922778238139E-01  2.95423735357694062E-01  2.99139708496844292E-01
  3.02902422824051110E-01  3.06712466271084561E-01  3.10570434164983589E-01
  3.14476929321081400E-01  3.18432562137194453E-01  3.22437950688996944E-01
  3.26493720826600331E-01  3.30600506272338890E-01  3.34758948719794447E-01
  3.38969697934060454E-01  3.43233411853267278E-01  3.47550756691390572E-01
  3.51922407042343788E-01  3.56349045985389024E-01  3.60831365191867925E-01
  3.65370065033274516E-01  3.69965854690694429E-01  3.74619452265610442E-01
  3.79331584892112161E-01  3.84102988850510030E-01  3.88934409682378690E-01
  3.93826602307054130E-01  3.98780331139585831E-01  4.03796370210182998E-01
  4.08875503285156205E-01  4.14018523989380827E-01  4.19226235930306612E-01
  4.24499452823518253E-01  4.29838998619884394E-01  4.35245707634299872E-01
  4.40720424676046718E-01  4.46264005180802614E-01  4.51877315344298480E-01
  4.57561232257668316E-01  4.63316644044494852E-01  4.69144449999577551E-01
  4.75045560729455307E-01  4.81020898294683918E-01  4.87071396353915664E-01
  4.93198000309783002E-01  4.99401667456617071E-01  5.05683367130032702E-01
  5.12044080858382267E-01  5.18484802516127719E-01  5.25006538479132812E-01
  5.31610307781908320E-01  5.38297142276845331E-01  5.45068086795436169E-01
  5.51924199311538577E-01  5.58866551106682707E-01  5.65896226937459224E-01
  5.73014325205020492E-01  5.80221958126700854E-01  5.87520251909808944E-01
  5.94910346927598477E-01  6.02393397897448946E-01  6.09970574061300619E-01
  6.17643059368343184E-01  6.25412052660016760E-01  6.33278767857330060E-01
  6.41244434150535669E-01  6.49310296191200398E-01  6.57477614286675949E-01
  6.65747664597032274E-01  6.74121739334457293E-01  6.82601146965163386E-01
  6.91187212413846952E-01  6.99881277270700153E-01  7.08684700001046441E-01
  7.17598856157599330E-01  7.26625138595391795E-01  7.35764957689421406E-01
  7.45019741555014270E-01  7.54390936270979418E-01  7.63880006105558618E-01
  7.73488433745216253E-01  7.83217720526322436E-01  7.93069386669728371E-01
  8.03044971518313555E-01  8.13146033777507715E-01  8.23374151758836437E-01
  8.33730923626546883E-01  8.44217967647311052E-01  8.54836922443095060E-01
  8.65589447247191557E-01  8.76477222163474234E-01  8.87501948428928267E-01
  8.98665348679459464E-01  9.09969167219070618E-01  9.21415170292408048E-01
  9.33005146360735949E-01  9.44740906381397849E-01  9.56624284090770605E-01
  9.68657136290799747E-01  9.80841343139124300E-01  9.93178808442849781E-01
  1.00567145995603435E+00  1.01832124968088955E+00  1.03113015417279796E+00
  1.04410017484914852E+00  1.05723333830205579E+00  1.07053169661503245E+00
  1.08399732768361678E+00  1.09763233554006168E+00  1.11143885068208692E+00
  1.12541903040576918E+00  1.13957505914263701E+00  1.15390914880097739E+00
  1.16842353911146435E+00  1.18312049797711549E+00  1.19800232182765121E+00
  1.21307133597832917E+00  1.22832989499326417E+00  1.24378038305334848E+00
  1.25942521432877808E+00  1.27526683335626490E+00  1.29130771542101619E+00
  1.30755036694348581E+00  1.32399732587102226E+00  1.34065116207442192E+00
  1.35751447774946898E+00  1.37458990782355195E+00  1.39188012036735453E+00
  1.40938781701176663E+00  1.42711573337001107E+00  1.44506663946508174E+00
  1.46324334016258195E+00  1.48164867560897218E+00  1.50028552167536344E+00
  1.51915679040687412E+00  1.53826543047763153E+00  1.55761442765152913E+00
  1.57720680524873580E+00  1.59704562461811461E+00  1.61713398561555732E+00
  1.63747502708833448E+00  1.65807192736556575E+00  1.67892790475481868E+00
  1.70004621804499489E+00  1.72143016701551432E+00  1.74308309295190367E+00
  1.76500837916790032E+00  1.78720945153407595E+00  1.80968977901315986E+00
  1.83245287420206027E+00  1.85550229388070576E+00  1.87884163956782202E+00
  1.90247455808365062E+00  1.92640474211979429E+00  1.95063593081619846E+00
  1.97517191034538886E+00  2.00001651450409268E+00  2.02517362531224965E+00
  2.05064717361960902E+00  2.07644113971992406E+00  2.10255955397286964E+00
  2.12900649743381720E+00  2.15578610249148284E+00  2.18290255351364326E+00
  2.21036008750094437E+00  2.23816299474892544E+00  2.26631561951841842E+00
  2.29482236071431211E+00  2.32368767257291919E+00  2.35291606535795017E+00
  2.38251210606523367E+00  2.41248041913635225E+00  2.44282568718118620E+00
  2.47355265170961003E+00  2.50466611387234961E+00  2.53617093521116033E+00
  2.56807203841848208E+00  2.60037440810658493E+00  2.63308309158645759E+00
  2.66620319965644459E+00  2.69973990740080572E+00  2.73369845499836650E+00
  2.76808414854126861E+00  2.80290236086409061E+00  2.83815853238335247E+00
  2.87385817194757243E+00  2.91000685769807399E+00  2.94661023794054078E+00
  2.98367403202761095E+00  3.02120403125252279E+00  3.05920609975399982E+00
  3.09768617543257196E+00  3.13665027087834147E+00  3.17610447431049980E+00
  3.21605495052860979E+00  3.25650794187584891E+00  3.29746976921442903E+00
  3.33894683291319705E+00  3.38094561384774828E+00  3.42347267441305592E+00
  3.46653465954884377E+00  3.51013829777791253E+00  3.55429040225743442E+00
  3.59899787184356823E+00  3.64426769216940283E+00  3.69010693673645296E+00
  3.73652276801995464E+00  3.78352243858796822E+00  3.83111329223464736E+00
  3.87930276512770478E+00  3.92809838697031033E+00  3.97750778217766454E+00
  4.02753867106827990E+00  4.07819887107033985E+00  4.12949629794317197E+00
  4.18143896701407680E+00  4.23403499443078779E+00  4.28729259842958310E+00
  4.34122010061944685E+00  4.39582592728232058E+00  4.45111861068970249E+00
  4.50710679043588325E+00  4.56379921478784301E+00  4.62120474205223264E+00
  4.67933234195949233E+00  4.73819109706534913E+00  4.79779020417005597E+00
  4.85813897575533638E+00  4.91924684143953872E+00  4.98112334945100965E+00
  5.04377816811999757E+00  5.10722108738940950E+00  5.17146202034443991E+00
  5.23651100476156994E+00  5.30237820467696785E+00  5.36907391197460893E+00
  5.43660854799447169E+00  5.50499266516081498E+00  5.57423694863108388E+00
  5.64435221796545950E+00  5.71534942881740626E+00  5.78723967464558520E+00
  5.86003418844714652E+00  5.93374434451298516E+00  6.00838166020496178E+00
  6.08395779775548196E+00  6.16048456608982065E+00  6.23797392267120276E+00
  6.31643797536925877E+00  6.39588898435187048E+00  6.47633936400081289E+00
  6.55780168485160786E+00  6.64028867555759916E+00  6.72381322487891886E+00
  6.80838838369634214E+00  6.89402736705048014E+00  6.98074355620673792E+00
  7.06855050074607583E+00  7.15746192068223230E+00  7.24749170860547753E+00
  7.33865393185331527E+00  7.43096283470862584E+00  7.52443284062525830E+00
  7.61907855448181603E+00  7.71491476486365979E+00  7.81195644637361664E+00
  7.91021876197188156E+00  8.00971706534515526E+00  8.11046690330578635E+00
  8.21248401822094642E+00  8.31578435047236653E+00  8.42038404094715887E+00
  8.52629943355973730E+00  8.63354707780569974E+00  8.74214373134767442E+00
  8.85210636263368578E+00  8.96345215354862290E+00  9.07619850209882451E+00
  9.19036302513064562E+00  9.30596356108310019E+00  9.42301817277508569E+00
  9.54154515022786498E+00  9.66156301352277325E+00  9.78309051569514665E+00
  9.90614664566447090E+00  1.00307506312013697E+01  1.01569219419321346E+01
  1.02846802923807275E+01  1.04140456450493488E+01  1.05450382135375680E+01
  1.06776784657006818E+01  1.08119871268479830E+01  1.09479851829809967E+01
  1.10856938840726968E+01  1.12251347473878234E+01  1.13663295608449246E+01
  1.15093003864209056E+01  1.16540695635980960E+01  1.18006597128549888E+01
  1.19490937392006646E+01  1.20993948357536887E+01  1.22515864873662323E+01
  1.24056924742934509E+01  1.25617368759093555E+01  1.27197440744691939E+01
  1.28797387589191654E+01  1.30417459287542759E+01  1.32057908979243681E+01
  1.33718992987896499E+01  1.35400970861257335E+01  1.37104105411790407E+01
  1.38828662757734786E+01  1.40574912364683922E+01  1.42343127087691919E+01
  1.44133583213906959E+01  1.45946560505740983E+01  1.47782342244584868E+01
  1.49641215275069719E+01
                               </PP_R> 
 <PP_RAB type="real" size="  1105" columns="3">