<UPF version="2.0.1">
   <PP_INFO>
         UPF file from ATOMPAW code with following input
           Pm  61
           GGA-PBE  loggrid 700 scalarrelativistic logderivrange -8 8 500
           6 5 5 4 0
           5 2 1
           4 3 4
           0 0 0
           c
           c
           c
           c
           v
           v
           c
           c
           c
           v
           c
           c
           v
           v
           3
           2.45  2.05   2.45  2.45
           n
           y
           2.0
           n
           y
           2.0
           n
           y
           2.0
           n
           VANDERBILT BESSELSHAPE
           4 0.0
           2.40
           2.40
           2.40
           2.40
           2.40
           2.40
           2.40
           2.40
           
           # UPDATE 05/03/2021: 
           For compatibility issues, mesh_size in the header below is made same as
           mesh value. 
           
  </PP_INFO>
  <!--                               -->
  <!-- END OF HUMAN READABLE SECTION -->
  <PP_HEADER generated="Generated using ATOMPAW code"
             author="   "
             date=" 08/04/2014, 14:51:11.859"
             element="Pm"
             pseudo_type="PAW"
             relativistic="scalar"
             is_ultrasoft="T"
             is_paw="T"
             is_coulomb="F"
             has_so="F"
             has_wfc="T"
             has_gipaw="T"
             paw_as_gipaw="T"
             core_correction="T"
             functional="SLA PW PBX PBC"
             z_valence="15.000"
             l_max="3"
             l_max_rho="6"
             mesh_size="   1106"
             number_of_wfc="     8"
             number_of_proj=" 8"
                                    /> 
<PP_MESH dx=" 1.2500000000000E-02" mesh="  1106" xmin="-7.0000000000000E+00" zmesh=" 6.1000000000000E+01">
 <PP_R type="real" size="  1106" columns="3">
  1.49488846812215770E-05  1.51369185027708562E-05  1.53273174986324951E-05
  1.55201114190369508E-05  1.57153303884265554E-05  1.59130049101624408E-05
  1.61131658712907963E-05  1.63158445473690392E-05  1.65210726073526320E-05
  1.67288821185435171E-05  1.69393055516006074E-05  1.71523757856134196E-05
  1.73681261132395112E-05  1.75865902459065069E-05  1.78078023190796368E-05
  1.80317968975953811E-05  1.82586089810623487E-05  1.84882740093300368E-05
  1.87208278680263532E-05  1.89563068941648825E-05  1.91947478818225314E-05
  1.94361880878887341E-05  1.96806652378868997E-05  1.99282175318690941E-05
  2.01788836503849356E-05  2.04327027605254017E-05  2.06897145220428593E-05
  2.09499590935479404E-05  2.12134771387843933E-05  2.14803098329829505E-05
  2.17504988692949441E-05  2.20240864653069953E-05  2.23011153696376057E-05
  2.25816288686166722E-05  2.28656707930491607E-05  2.31532855250636348E-05
  2.34445180050471219E-05  2.37394137386671407E-05  2.40380188039820184E-05
  2.43403798586407689E-05  2.46465441471733186E-05  2.49565595083726497E-05
  2.52704743827696761E-05  2.55883378202021671E-05  2.59101994874789692E-05
  2.62361096761404001E-05  2.65661193103165019E-05  2.69002799546840347E-05
  2.72386438225235082E-05  2.75812637838777253E-05  2.79281933738126876E-05
  2.82794868007826623E-05  2.86351989551003222E-05  2.89953854175134521E-05
  2.93601024678896693E-05  2.97294070940100856E-05  3.01033570004738873E-05
  3.04820106177147700E-05  3.08654271111307750E-05  3.12536663903291220E-05
  3.16467891184870411E-05  3.20448567218306103E-05  3.24479313992327332E-05
  3.28560761319317848E-05  3.32693546933726913E-05  3.36878316591714591E-05
  3.41115724172053977E-05  3.45406431778300647E-05  3.49751109842247229E-05
  3.54150437228681052E-05  3.58605101341456588E-05  3.63115798230904385E-05
  3.67683232702590700E-05  3.72308118427443782E-05  3.76991178053268197E-05
  3.81733143317657979E-05  3.86534755162333269E-05  3.91396763848913664E-05
  3.96319929076148112E-05  4.01305020098620150E-05  4.06352815846944040E-05
  4.11464105049475144E-05  4.16639686355550567E-05  4.21880368460278665E-05
  4.27186970230901384E-05  4.32560320834741226E-05  4.38001259868762397E-05
  4.43510637490758452E-05  4.49089314552191527E-05  4.54738162732703068E-05
  4.60458064676313542E-05  4.66249914129338917E-05  4.72114616080039835E-05
  4.78053086900027456E-05  4.84066254487450248E-05  4.90155058411977090E-05
  4.96320450061609093E-05  5.02563392791334959E-05  5.08884862073657145E-05
  5.15285845651013201E-05  5.21767343690109311E-05  5.28330368938201053E-05
  5.34975946881335757E-05  5.41705115904587216E-05  5.48518927454306885E-05
  5.55418446202411744E-05  5.62404750212743332E-05  5.69478931109516988E-05
  5.76642094247889887E-05  5.83895358886677029E-05  5.91239858363234530E-05
  5.98676740270548134E-05  6.06207166636546214E-05  6.13832314105668884E-05
  6.21553374122722660E-05  6.29371553119043259E-05  6.37288072701004953E-05
  6.45304169840898832E-05  6.53421097070211492E-05  6.61640122675337486E-05
  6.69962530895748580E-05  6.78389622124661817E-05  6.86922713112226191E-05
  6.95563137171268845E-05  7.04312244385629533E-05  7.13171401821109636E-05
  7.22141993739083029E-05  7.31225421812787098E-05  7.40423105346338622E-05
  7.49736481496503807E-05  7.59167005497253359E-05  7.68716150887149363E-05
  7.78385409739586453E-05  7.88176292895932006E-05  7.98090330201600462E-05
  8.08129070745090491E-05  8.18294083100035570E-05  8.28586955570297367E-05
  8.39009296438139623E-05  8.49562734215528594E-05  8.60248917898587576E-05
  8.71069517225258233E-05  8.82026222936200020E-05  8.93120747038971360E-05
  9.04354823075536338E-05  9.15730206393131063E-05  9.27248674418542290E-05
  9.38912026935833662E-05  9.50722086367564178E-05  9.62680698059549555E-05
  9.74789730569195764E-05  9.87051075957468715E-05  9.99466650084530846E-05
  1.01203839290909856E-04  1.02476826879156738E-04  1.03765826680094218E-04
  1.05071040102563655E-04  1.06392671088817824E-04  1.07730926146387093E-04
  1.09086014380347111E-04  1.10458147525991266E-04  1.11847539981915195E-04
  1.13254408843516927E-04  1.14678973936918204E-04  1.16121457853313526E-04
  1.17582085983749160E-04  1.19061086554342487E-04  1.20558690661941572E-04
  1.22075132310235060E-04  1.23610648446316002E-04  1.25165478997704292E-04
  1.26739866909837218E-04  1.28334058184029068E-04  1.29948301915909736E-04
  1.31582850334346896E-04  1.33237958840855914E-04  1.34913886049508680E-04
  1.36610893827341143E-04  1.38329247335270994E-04  1.40069215069530263E-04
  1.41831068903616948E-04  1.43615084130777499E-04  1.45421539507020617E-04
  1.47250717294674044E-04  1.49102903306488931E-04  1.50978386950297369E-04
  1.52877461274234866E-04  1.54800423012528050E-04  1.56747572631860734E-04
  1.58719214378322829E-04  1.60715656324947998E-04  1.62737210419852641E-04
  1.64784192534976826E-04  1.66856922515440479E-04  1.68955724229520468E-04
  1.71080925619254172E-04  1.73232858751682853E-04  1.75411859870736508E-04
  1.77618269449772979E-04  1.79852432244778502E-04  1.82114697348234535E-04
  1.84405418243666650E-04  1.86724952860875038E-04  1.89073663631862649E-04
  1.91451917547466453E-04  1.93860086214698646E-04  1.96298545914813460E-04
  1.98767677662099995E-04  2.01267867263416988E-04  2.03799505378476919E-04
  2.06362987580885207E-04  2.08958714419951936E-04  2.11587091483276607E-04
  2.14248529460122608E-04  2.16943444205589182E-04  2.19672256805587341E-04
  2.22435393642638255E-04  2.25233286462494164E-04  2.28066372441600314E-04
  2.30935094255405493E-04  2.33839900147528789E-04  2.36781243999801302E-04
  2.39759585403183969E-04  2.42775389729580319E-04  2.45829128204552748E-04
  2.48921277980949929E-04  2.52052322213466092E-04  2.55222750134132643E-04
  2.58433057128762086E-04  2.61683744814354474E-04  2.64975321117473354E-04
  2.68308300353613542E-04  2.71683203307561535E-04  2.75100557314769819E-04
  2.78560896343755474E-04  2.82064761079530888E-04  2.85612699008090426E-04
  2.89205264501953495E-04  2.92843018906787473E-04  2.96526530629119881E-04
  3.00256375225150477E-04  3.04033135490686644E-04  3.07857401552203412E-04
  3.11729770959053389E-04  3.15650848776834951E-04  3.19621247681934337E-04
  3.23641588057258704E-04  3.27712498089171005E-04  3.31834613865645742E-04
  3.36008579475659947E-04  3.40235047109831862E-04  3.44514677162328356E-04
  3.48848138334052077E-04  3.53236107737127370E-04  3.57679271000701170E-04
  3.62178322378072859E-04  3.66733964855173785E-04  3.71346910260409357E-04
  3.76017879375884097E-04  3.80747602050025846E-04  3.85536817311624700E-04
  3.90386273485309485E-04  3.95296728308473376E-04  4.00268949049672736E-04
  4.05303712628514716E-04  4.10401805737051586E-04  4.15564024962704044E-04
  4.20791176912728448E-04  4.26084078340251571E-04  4.31443556271890417E-04
  4.36870448136975184E-04  4.42365601898401411E-04  4.47929876185124089E-04
  4.53564140426320958E-04  4.59269274987242988E-04  4.65046171306772145E-04
  4.70895732036711993E-04  4.76818871182827485E-04  4.82816514247660466E-04
  4.88889598375142785E-04  4.95039072497024620E-04  5.01265897481149056E-04
  5.07571046281588435E-04  5.13955504090670323E-04  5.20420268492917306E-04
  5.26966349620919153E-04  5.33594770313170971E-04  5.40306566273891222E-04
  5.47102786234853746E-04  5.53984492119255056E-04  5.60952759207639876E-04
  5.68008676305918440E-04  5.75153345915492445E-04  5.82387884405524041E-04
  5.89713422187371607E-04  5.97131103891216904E-04  6.04642088544918321E-04
  6.12247549755108524E-04  6.19948675890575110E-04  6.27746670267945303E-04
  6.35642751339705035E-04  6.43638152884587131E-04  6.51734124200349500E-04
  6.59931930298981182E-04  6.68232852104364331E-04  6.76638186652418804E-04
  6.85149247293769144E-04  6.93767363898955972E-04  7.02493883066232548E-04
  7.11330168331973395E-04  7.20277600383728155E-04  7.29337577275959389E-04
  7.38511514648488828E-04  7.47800845947695211E-04  7.57207022650493761E-04
  7.66731514491130785E-04  7.76375809690834934E-04  7.86141415190352009E-04
  7.96029856885409380E-04  8.06042679865140725E-04  8.16181448653507274E-04
  8.26447747453760246E-04  8.36843180395974075E-04  8.47369371787695300E-04
  8.58027966367743995E-04  8.68820629563209798E-04  8.79749047749674314E-04
  8.90814928514713006E-04  9.02020000924709108E-04  9.13366015795022933E-04
  9.24854745963563075E-04  9.36487986567791715E-04  9.48267555325221063E-04
  9.60195292817435397E-04  9.72273062777683937E-04  9.84502752382097543E-04
  9.96886272544557014E-04  1.00942555821528258E-03  1.02212256868317139E-03
  1.03497928788194062E-03  1.04799772470012408E-03  1.06117991329495983E-03
  1.07452791341023550E-03  1.08804381069812529E-03  1.10172971704507790E-03
  1.11558777090180650E-03  1.12962013761741943E-03  1.14382900977776504E-03
  1.15821660754802653E-03  1.17278517901962657E-03  1.18753700056149921E-03
  1.20247437717577264E-03  1.21759964285793288E-03  1.23291516096151518E-03
  1.24842332456738233E-03  1.26412655685765110E-03  1.28002731149431427E-03
  1.29612807300263423E-03  1.31243135715935393E-03  1.32893971138579067E-03
  1.34565571514588204E-03  1.36258198034922224E-03  1.37972115175918702E-03
  1.39707590740617842E-03  1.41464895900607368E-03  1.43244305238394076E-03
  1.45046096790307061E-03  1.46870552089942152E-03  1.48717956212151723E-03
  1.50588597817588338E-03  1.52482769197809015E-03  1.54400766320945395E-03
  1.56342888877950264E-03  1.58309440329424365E-03  1.60300727953032861E-03
  1.62317062891518529E-03  1.64358760201317624E-03  1.66426138901788669E-03
  1.68519522025059728E-03  1.70639236666502705E-03  1.72785614035843174E-03
  1.74958989508911824E-03  1.77159702680048043E-03  1.79388097415162273E-03
  1.81644521905465514E-03  1.83929328721874974E-03  1.86242874870104535E-03
  1.88585521846446600E-03  1.90957635694257409E-03  1.93359587061151775E-03
  1.95791751256917416E-03  1.98254508312158519E-03  2.00748243037675344E-03
  2.03273345084592277E-03  2.05830209005241488E-03  2.08419234314812440E-03
  2.11040825553777435E-03  2.13695392351101162E-03  2.16383349488246356E-03
  2.19105116963984456E-03  2.21861120060020843E-03  2.24651789407446676E-03
  2.27477561054025088E-03  2.30338876532324875E-03  2.33236182928710928E-03
  2.36169932953202068E-03  2.39140585010208864E-03  2.42148603270158800E-03
  2.45194457742024764E-03  2.48278624346765040E-03  2.51401584991686007E-03
  2.54563827645742664E-03  2.57765846415783069E-03  2.61008141623754681E-03
  2.64291219884880144E-03  2.67615594186817064E-03  2.70981783969814023E-03
  2.74390315207873048E-03  2.77841720490934734E-03  2.81336539108096488E-03
  2.84875317131877285E-03  2.88458607503543464E-03  2.92086970119505730E-03
  2.95760971918804672E-03  2.99481186971696338E-03  3.03248196569351263E-03
  3.07062589314683687E-03  3.10924961214320214E-03  3.14835915771728226E-03
  3.18796064081514193E-03  3.22806024924908279E-03  3.26866424866451098E-03
  3.30977898351894227E-03  3.35141087807334578E-03  3.39356643739594736E-03
  3.43625224837865260E-03  3.47947498076628045E-03  3.52324138819869919E-03
  3.56755830926611464E-03  3.61243266857760653E-03  3.65787147784311191E-03
  3.70388183696903099E-03  3.75047093516758193E-03  3.79764605208014576E-03
  3.84541455891471845E-03  3.89378391959767454E-03  3.94276169194003601E-03
  3.99235552881837402E-03  4.04257317937059980E-03  4.09342249020678249E-03
  4.14491140663518758E-03  4.19704797390377162E-03  4.24984033845724005E-03
  4.30329674920995782E-03  4.35742555883486451E-03  4.41223522506858749E-03
  4.46773431203299418E-03  4.52393149157333165E-03  4.58083554461323657E-03
  4.63845536252677128E-03  4.69679994852770667E-03  4.75587841907631776E-03
  4.81570000530381816E-03  4.87627405445476610E-03  4.93761003134757844E-03
  4.99971751985343101E-03  5.06260622439376907E-03  5.12628597145662127E-03
  5.19076671113202250E-03  5.25605851866673551E-03  5.32217159603852030E-03
  5.38911627355023216E-03  5.45690301144392906E-03  5.52554240153531936E-03
  5.59504516886875306E-03  5.66542217339302458E-03  5.73668441165828616E-03
  5.80884301853424288E-03  5.88190926895002918E-03  5.95589457965592633E-03
  6.03081051100725143E-03  6.10666876877070594E-03  6.18348120595339432E-03
  6.26125982465490331E-03  6.34001677794264733E-03  6.41976437175080343E-03
  6.50051506680316294E-03  6.58228148056011139E-03  6.66507638919015301E-03
  6.74891272956620967E-03  6.83380360128702305E-03  6.91976226872402511E-03
  7.00680216309388249E-03  7.09493688455717190E-03  7.18418020434343548E-03
  7.27454606690294912E-03  7.36604859208560107E-03  7.45870207734710983E-03
  7.55252099998305042E-03  7.64752001939096246E-03  7.74371397936089636E-03
  7.84111791039482191E-03  7.93974703205512465E-03  8.03961675534272703E-03
  8.14074268510507973E-03  8.24314062247444128E-03  8.34682656733687356E-03
  8.45181672083220210E-03  8.55812748788551368E-03  8.66577547977045483E-03
  8.77477751670475807E-03  8.88515063047847983E-03  8.99691206711519115E-03
  9.11007928956674914E-03  9.22466998044190432E-03  9.34070204476922933E-03
  9.45819361279486535E-03  9.57716304281534467E-03  9.69762892404615537E-03
  9.81961007952632421E-03  9.94312556905956393E-03  1.00681946921924240E-02
  1.01948369912298418E-02  1.03230722542886951E-02  1.04529205183897349E-02
  1.05844020725883951E-02  1.07175374611450398E-02  1.08523474867349874E-02
  1.09888532136990114E-02  1.11270759713346691E-02  1.12670373572290525E-02
  1.14087592406334776E-02  1.15522637658805518E-02  1.16975733558443099E-02
  1.18447107154438132E-02  1.19936988351908493E-02  1.21445609947822622E-02
  1.22973207667374101E-02  1.24520020200814575E-02  1.26086289240749348E-02
  1.27672259519902437E-02  1.29278178849356849E-02  1.30904298157274966E-02
  1.32550871528107021E-02  1.34218156242292205E-02  1.35906412816459085E-02
  1.37615905044132375E-02  1.39346900036950577E-02  1.41099668266402994E-02
  1.42874483606091566E-02  1.44671623374523842E-02  1.46491368378445213E-02
  1.48334002956714735E-02  1.50199815024734118E-02  1.52089096119435007E-02
  1.54002141444832107E-02  1.55939249918149864E-02  1.57900724216528225E-02
  1.59886870824316914E-02  1.61898000080964270E-02  1.63934426229508205E-02
  1.65996467465677824E-02  1.68084445987611367E-02  1.70198688046200898E-02
  1.72339523996069624E-02  1.74507288347190044E-02  1.76702319817152731E-02
  1.78924961384090489E-02  1.81175560340270173E-02  1.83454468346357612E-02
  1.85762041486364979E-02  1.88098640323290586E-02  1.90464629955456322E-02
  1.92860380073555937E-02  1.95286265018419503E-02  1.97742663839505020E-02
  2.00229960354126255E-02  2.02748543207423790E-02  2.05298805933092632E-02
  2.07881147014872189E-02  2.10495969948810077E-02  2.13143683306310054E-02
  2.15824700797970816E-02  2.18539441338230084E-02  2.21288329110820338E-02
  2.24071793635048575E-02  2.26890269832910121E-02  2.29744198097044869E-02
  2.32634024359550488E-02  2.35560200161659891E-02  2.38523182724295277E-02
  2.41523435019510777E-02  2.44561425842831290E-02  2.47637629886503820E-02
  2.50752527813668837E-02  2.53906606333464437E-02  2.57100358277076897E-02
  2.60334282674744913E-02  2.63608884833735034E-02  2.66924676417296912E-02
  2.70282175524611187E-02  2.73681906771744768E-02  2.77124401373621612E-02
  2.80610197227027097E-02  2.84139838994655128E-02  2.87713878190212873E-02
  2.91332873264596517E-02  2.94997389693149072E-02  2.98708000064018021E-02
  3.02465284167623139E-02  3.06269829087249569E-02  3.10122229290781988E-02
  3.14023086723589639E-02  3.17973010902582801E-02  3.21972619011450592E-02
  3.26022535997097032E-02  3.30123394667291292E-02  3.34275835789543535E-02
  3.38480508191227464E-02  3.42738068860960199E-02  3.47049183051258148E-02
  3.51414524382485174E-02  3.55834774948105420E-02  3.60310625421262770E-02
  3.64842775162699876E-02  3.69431932330034213E-02  3.74078813988410475E-02
  3.78784146222541779E-02  3.83548664250162666E-02  3.88373112536908455E-02
  3.93258244912638999E-02  3.98204824689227660E-02  4.03213624779827987E-02
  4.08285427819644609E-02  4.13421026288221249E-02  4.18621222633266676E-02
  4.23886829396040443E-02  4.29218669338311751E-02  4.34617575570919318E-02
  4.40084391683946280E-02  4.45619971878531973E-02  4.51225181100345443E-02
  4.56900895174729774E-02  4.62648000943557264E-02  4.68467396403797615E-02
  4.74359990847829718E-02  4.80326705005525365E-02  4.86368471188109580E-02
  4.92486233433841319E-02  4.98680947655518944E-02  5.04953581789841163E-02
  5.11305115948655006E-02  5.17736542572093256E-02  5.24248866583651579E-02
  5.30843105547207095E-02  5.37520289826012021E-02  5.44281462743696903E-02
  5.51127680747283688E-02  5.58060013572265201E-02  5.65079544409750334E-02
  5.72187370075711715E-02  5.79384601182372713E-02  5.86672362311734460E-02
  5.94051792191301747E-02  6.01524043872007641E-02  6.09090284908377702E-02
  6.16751697540969604E-02  6.24509478881092178E-02  6.32364841097864394E-02
  6.40319011607615590E-02  6.48373233265668453E-02  6.56528764560545680E-02
  6.64786879810602693E-02  6.73148869363149327E-02  6.81616039796067302E-02
  6.90189714121960673E-02  6.98871231994888931E-02  7.07661949919679428E-02
  7.16563241463894496E-02  7.25576497472448789E-02  7.34703126284928648E-02
  7.43944553955656895E-02  7.53302224476506549E-02  7.62777600002535888E-02
  7.72372161080449871E-02  7.82087406879934804E-02  7.91924855427915408E-02
  8.01886043845738694E-02  8.11972528589362808E-02  8.22185885692551244E-02
  8.32527711013128086E-02  8.42999620482342837E-02  8.53603250357352489E-02
  8.64340257476899909E-02  8.75212319520193432E-02  8.86221135269043697E-02
  8.97368424873312281E-02  9.08655930119676020E-02  9.20085414703795818E-02
  9.31658664505893158E-02  9.43377487869791892E-02  9.55243715885488454E-02
  9.67259202675248841E-02  9.79425825683331447E-02  9.91745485969336149E-02
  1.00422010850524365E-01  1.01685164247620849E-01  1.02964206158510929E-01
  1.04259336436095557E-01  1.05570757447115804E-01  1.06898674103772337E-01
  1.08243293895744830E-01  1.09604826922611018E-01  1.10983485926676617E-01
  1.12379486326216110E-01  1.13793046249131724E-01  1.15224386567037720E-01
  1.16673730929770444E-01  1.18141305800335494E-01  1.19627340490292403E-01
  1.21132067195584434E-01  1.22655721032821075E-01  1.24198540076013914E-01
  1.25760765393777507E-01  1.27342641086996361E-01  1.28944414326965434E-01
  1.30566335394012800E-01  1.32208657716604505E-01  1.33871637910945029E-01
  1.35555535821073353E-01  1.37260614559463368E-01  1.38987140548137406E-01
  1.40735383560293387E-01  1.42505616762459042E-01  1.44298116757173966E-01
  1.46113163626208797E-01  1.47951040974330011E-01  1.49812035973611923E-01
  1.51696439408309652E-01  1.53604545720294028E-01  1.55536653055057816E-01
  1.57493063308303483E-01  1.59474082173112902E-01  1.61480019187714430E-01
  1.63511187783847989E-01  1.65567905335738591E-01  1.67650493209688695E-01
  1.69759276814290094E-01  1.71894585651271636E-01  1.74056753366983785E-01
  1.76246117804530394E-01  1.78463021056559812E-01  1.80707809518714846E-01
  1.82980833943760079E-01  1.85282449496386697E-01  1.87613015808706901E-01
  1.89972897036449206E-01  1.92362461915855959E-01  1.94782083821301549E-01
  1.97232140823631774E-01  1.99713015749237277E-01  2.02225096239873225E-01
  2.04768774813226445E-01  2.07344448924249553E-01  2.09952521027262973E-01
  2.12593398638838249E-01  2.15267494401475884E-01  2.17975226148078488E-01
  2.20717016967241136E-01  2.23493295269356795E-01  2.26304494853558941E-01
  2.29151054975502422E-01  2.32033420415996838E-01  2.34952041550507362E-01
  2.37907374419523365E-01  2.40899880799818722E-01  2.43930028276604094E-01
  2.46998290316586766E-01  2.50105146341953744E-01  2.53251081805279110E-01
  2.56436588265379850E-01  2.59662163464121853E-01  2.62928311404191428E-01
  2.66235542427850136E-01  2.69584373296673174E-01  2.72975327272297452E-01
  2.76408934198181133E-01  2.79885730582391135E-01  2.83406259681437123E-01
  2.86971071585152282E-01  2.90580723302649890E-01  2.94235778849355034E-01
  2.97936809335132280E-01  3.01684393053525790E-01  3.05479115572115045E-01
  3.09321569824014486E-01  3.13212356200519126E-01  3.17152082644915068E-01
  3.21141364747475733E-01  3.25180825841644816E-01  3.29271097101437205E-01
  3.33412817640059478E-01  3.37606634609771084E-01  3.41853203303007114E-01
  3.46153187254764350E-01  3.50507258346284323E-01  3.54916096910034007E-01
  3.59380391836007729E-01  3.63900840679371562E-01  3.68478149769452867E-01
  3.73113034320110337E-01  3.77806218541485272E-01  3.82558435753159398E-01
  3.87370428498741814E-01  3.92242948661887747E-01  3.97176757583786566E-01
  4.02172626182120907E-01  4.07231335071522094E-01  4.12353674685547511E-01
  4.17540445400181870E-01  4.22792457658902665E-01  4.28110532099311381E-01
  4.33495499681357421E-01  4.38948201817182915E-01  4.44469490502588660E-01
  4.50060228450165578E-01  4.55721289224093273E-01  4.61453557376633683E-01
  4.67257928586349458E-01  4.73135309798049741E-01  4.79086619364507249E-01
  4.85112787189950490E-01  4.91214754875361093E-01  4.97393475865605894E-01
  5.03649915598408771E-01  5.09985051655207577E-01  5.16399873913901075E-01
  5.22895384703516375E-01  5.29472598960831542E-01  5.36132544388953636E-01
  5.42876261617906697E-01  5.49704804367228905E-01  5.56619239610615657E-01
  5.63620647742643088E-01  5.70710122747574600E-01  5.77888772370303894E-01
  5.85157718289441187E-01  5.92518096292572682E-01  5.99971056453738383E-01
  6.07517763313124459E-01  6.15159396059032804E-01  6.22897148712127868E-01
  6.30732230312002207E-01  6.38665865106098685E-01  6.46699292740992693E-01
  6.54833768456097309E-01  6.63070563279793967E-01  6.71410964228029594E-01
  6.79856274505423186E-01  6.88407813708885374E-01  6.97066918033816152E-01
  7.05834940482884643E-01  7.14713251077434553E-01  7.23703237071562033E-01
  7.32806303168866524E-01  7.42023871741946950E-01  7.51357383054647832E-01
  7.60808295487097941E-01  7.70378085763595899E-01  7.80068249183339391E-01
  7.89880299854078927E-01  7.99815770928696046E-01  8.09876214844757136E-01
  8.20063203567095278E-01  8.30378328833420776E-01  8.40823202403044312E-01
  8.51399456308712943E-01  8.62108743111614007E-01  8.72952736159601561E-01
  8.83933129848648580E-01  8.95051639887610384E-01  9.06310003566303091E-01
  9.17709980026953365E-01  9.29253350539079870E-01  9.40941918777807196E-01
  9.52777511105704744E-01  9.64761976858155013E-01  9.76897188632311342E-01
  9.89185042579705853E-01  1.00162745870251424E+00  1.01422638115357189E+00
  1.02698377854014611E+00  1.03990164423153031E+00  1.05298199667052383E+00
  1.06622687968880347E+00  1.07963836282629022E+00  1.09321854165451171E+00
  1.10696953810403520E+00  1.12089350079603656E+00  1.13499260537801061E+00
  1.14926905486373543E+00  1.16372507997749075E+00  1.17836293950260762E+00
  1.19318492063442205E+00  1.20819333933763673E+00  1.22339054070821174E+00
  1.23877889933978169E+00  1.25436081969468671E+00  1.27013873647968811E+00
  1.28611511502637965E+00  1.30229245167641539E+00  1.31867327417156255E+00
  1.33526014204865806E+00  1.35205564703955927E+00  1.36906241347608648E+00
  1.38628309870009847E+00  1.40372039347869926E+00  1.42137702242467046E+00
  1.43925574442221182E+00  1.45735935305800535E+00  1.47569067705773471E+00
  1.49425258072807288E+00  1.51304796440422762E+00  1.53207976490314346E+00
  1.55135095598236306E+00  1.57086454880470283E+00  1.59062359240874507E+00
  1.61063117418524704E+00  1.63089042035957288E+00  1.65140449648014953E+00
  1.67217660791310974E+00  1.69321000034312874E+00  1.71450796028056107E+00
  1.73607381557498397E+00  1.75791093593515679E+00  1.78002273345556716E+00
  1.80241266314956738E+00  1.82508422348921884E+00  1.84804095695195625E+00
  1.87128645057408272E+00  1.89482433651127313E+00  1.91865829260609688E+00
  1.94279204296267771E+00  1.96722935852861580E+00  1.99197405768417979E+00
  2.01703000683895972E+00  2.04240112103599092E+00  2.06809136456347842E+00
  2.09410475157424658E+00  2.12044534671293405E+00  2.14711726575112438E+00
  2.17412467623043693E+00  2.20147179811369709E+00  2.22916290444434617E+00
  2.25720232201407756E+00  2.28559443203893720E+00  2.31434367084388537E+00
  2.34345453055596753E+00  2.37293155980624837E+00  2.40277936444051132E+00
  2.43300260823896064E+00  2.46360601364493403E+00  2.49459436250278044E+00
  2.52597249680506408E+00  2.55774531944910022E+00  2.58991779500307295E+00
  2.62249495048174897E+00  2.65548187613194031E+00  2.68888372622790151E+00
  2.72270571987665777E+00  2.75695314183353180E+00  2.79163134332788765E+00
  2.82674574289925129E+00  2.86230182724400750E+00  2.89830515207266304E+00
  2.93476134297797797E+00  2.97167609631395679E+00  3.00905518008590134E+00
  3.04690443485171025E+00  3.08522977463443437E+00  3.12403718784639350E+00
  3.16333273822486216E+00  3.20312256577952370E+00  3.24341288775189751E+00
  3.28420999958675131E+00  3.32552027591581778E+00  3.36735017155382543E+00
  3.40970622250705979E+00  3.45259504699466779E+00  3.49602334648272217E+00
  3.53999790673137893E+00  3.58452559885515054E+00  3.62961338039651071E+00
  3.67526829641307007E+00  3.72149748057832941E+00  3.76830815629637428E+00
  3.81570763783052946E+00  3.86370333144620659E+00  3.91230273656819438E+00
  3.96151344695240626E+00  4.01134315187246493E+00  4.06179963732115290E+00
  4.11289078722696022E+00  4.16462458468602126E+00  4.21700911320942584E+00
  4.27005255798634042E+00  4.32376320716293883E+00  4.37814945313741255E+00
  4.43321979387136089E+00  4.48898283421755018E+00  4.54544728726449154E+00
  4.60262197569786125E+00  4.66051583317903173E+00  4.71913790574103853E+00
  4.77849735320196967E+00  4.83860345059626695E+00  4.89946558962394363E+00
  4.96109328011803008E+00  5.02349615153056739E+00  5.08668395443715404E+00
  5.15066656206056095E+00  5.21545397181341119E+00  5.28105630686027094E+00
  5.34748381769948100E+00  5.41474688376473612E+00  5.48285601504696807E+00
  5.55182185373651738E+00  5.62165517588597385E+00  5.69236689309401811E+00
  5.76396805421030844E+00  5.83646984706195227E+00  5.90988360020160197E+00
  5.98422078467752261E+00  6.05949301582605315E+00  6.13571205508642858E+00
  6.21288981183861555E+00  6.29103834526413497E+00  6.37016986623030768E+00
  6.45029673919830238E+00  6.53143148415501518E+00  6.61358677856942823E+00
  6.69677545937345187E+00  6.78101052496768553E+00  6.86630513725252989E+00
  6.95267262368466543E+00  7.04012647935957236E+00  7.12868036912014169E+00
  7.21834812969178508E+00  7.30914377184454978E+00  7.40108148258222176E+00
  7.49417562735916309E+00  7.58844075232491111E+00  7.68389158659700033E+00
  7.78054304456250723E+00  7.87841022820835057E+00  7.97750842948110162E+00
  8.07785313267634031E+00  8.17946001685806579E+00  8.28234495830868056E+00
  8.38652403300957694E+00  8.49201351915314717E+00  8.59882989968623690E+00
  8.70698986488559257E+00  8.81651031496585880E+00  8.92740836272015414E+00
  9.03970133619407790E+00  9.15340678139321362E+00  9.26854246502467483E+00
  9.38512637727330912E+00  9.50317673461256440E+00  9.62271198265096395E+00
  9.74375079901423291E+00  9.86631209626364303E+00  9.99041502485128063E+00
  1.01160789761121901E+01  1.02433235852944406E+01  1.03721687346271167E+01
  1.05026345564268997E+01  1.06347414362439174E+01  1.07685100160468821E+01
  1.09039611974485542E+01  1.10411161449716300E+01  1.11799962893556639E+01
  1.13206233309058089E+01  1.14630192428833730E+01  1.16072062749393332E+01
  1.17532069565908177E+01  1.19010441007413341E+01  1.20507408072454734E+01
  1.22023204665181471E+01  1.23558067631895305E+01  1.25112236798057648E+01
  1.26685955005762292E+01  1.28279468151681399E+01  1.29893025225485577E+01
  1.31526878348750653E+01  1.33181282814351469E+01  1.34856497126351211E+01
  1.36552783040394878E+01  1.38270405604607127E+01  1.40009633201008459E+01
  1.41770737587449478E+01  1.43553993940073106E+01  1.45359680896312984E+01
  1.47188080598429245E+01  1.49039478737595452E+01
                               </PP_R> 