<PP_INFO>
Generated using Vanderbilt code, version   7  3  6                              
Author: kfg        Generation date:   13    5 2013                              
Automatically converted from original format                                    
    1        The Pseudo was generated with a Scalar-Relativistic Calculation
  2.10000000000E+00    Local Potential cutoff radius
nl pn  l   occ               Rcut            Rcut US             E pseu
5S  5  0  2.00      0.00000000000      2.10000000000     -1.11046279000
5P  5  1  4.00      0.00000000000      2.10000000000     -0.43756267400
</PP_INFO>


<PP_HEADER>
   0                   Version Number
  Te                   Element
   US                  Ultrasoft pseudopotential
    T                  Nonlinear Core Correction
SLA  PW   PBE  PBE     PBE  Exchange-Correlation functional
    6.00000000000      Z valence
  -26.26843990040      Total energy
    0.00000    0.00000 Suggested cutoff for wfc and rho
    2                  Max angular momentum component
  891                  Number of points in mesh
    2    5             Number of Wavefunctions, Number of Projectors
 Wavefunctions         nl  l   occ
                       5S  0  2.00
                       5P  1  4.00
</PP_HEADER>


<PP_MESH>
  <PP_R>
  0.00000000000E+00  1.10039444928E-09  2.22864551667E-09  3.38545839581E-09
  4.57155613242E-09  5.78768007617E-09  7.03459034414E-09  8.31306629582E-09
  9.62390702031E-09  1.09679318357E-08  1.23459808013E-08  1.37589152426E-08
  1.52076182895E-08  1.66929954287E-08  1.82159750692E-08  1.97775091228E-08
  2.13785735992E-08  2.30201692158E-08  2.47033220233E-08  2.64290840469E-08
  2.81985339442E-08  3.00127776789E-08  3.18729492124E-08  3.37802112124E-08
  3.57357557799E-08  3.77408051938E-08  3.97966126752E-08  4.19044631708E-08
  4.40656741558E-08  4.62815964573E-08  4.85536150990E-08  5.08831501664E-08
  5.32716576948E-08  5.57206305792E-08  5.82315995073E-08  6.08061339164E-08
  6.34458429744E-08  6.61523765854E-08  6.89274264209E-08  7.17727269774E-08
  7.46900566605E-08  7.76812388961E-08  8.07481432706E-08  8.38926866989E-08
  8.71168346230E-08  9.04226022405E-08  9.38120557636E-08  9.72873137112E-08
  1.00850548233E-07  1.04503986465E-07  1.08249911927E-07  1.12090665944E-07
  1.16028649111E-07  1.20066322797E-07  1.24206210679E-07  1.28450900321E-07
  1.32803044794E-07  1.37265364328E-07  1.41840648019E-07  1.46531755568E-07
  1.51341619070E-07  1.56273244847E-07  1.61329715324E-07  1.66514190961E-07
  1.71829912223E-07  1.77280201610E-07  1.82868465730E-07  1.88598197429E-07
  1.94472977977E-07  2.00496479303E-07  2.06672466290E-07  2.13004799133E-07
  2.19497435744E-07  2.26154434234E-07  2.32979955443E-07  2.39978265544E-07
  2.47153738709E-07  2.54510859842E-07  2.62054227383E-07  2.69788556182E-07
  2.77718680447E-07  2.85849556764E-07  2.94186267195E-07  3.02734022455E-07
  3.11498165169E-07  3.20484173213E-07  3.29697663133E-07  3.39144393661E-07
  3.48830269311E-07  3.58761344071E-07  3.68943825185E-07  3.79384077035E-07
  3.90088625120E-07  4.01064160129E-07  4.12317542130E-07  4.23855804853E-07
  4.35686160087E-07  4.47816002190E-07  4.60252912707E-07  4.73004665113E-07
  4.86079229669E-07  4.99484778401E-07  5.13229690216E-07  5.27322556130E-07
  5.41772184643E-07  5.56587607243E-07  5.71778084052E-07  5.87353109612E-07
  6.03322418822E-07  6.19695993019E-07  6.36484066220E-07  6.53697131517E-07
  6.71345947637E-07  6.89441545665E-07  7.07995235937E-07  7.27018615115E-07
  7.46523573429E-07  7.66522302114E-07  7.87027301026E-07  8.08051386457E-07
  8.29607699144E-07  8.51709712485E-07  8.74371240958E-07  8.97606448755E-07
  9.21429858638E-07  9.45856361014E-07  9.70901223241E-07  9.96580099174E-07
  1.02290903895E-06  1.04990449900E-06  1.07758335238E-06  1.10596289927E-06
  1.13506087781E-06  1.16489547519E-06  1.19548533899E-06  1.22684958888E-06
  1.25900782854E-06  1.29198015791E-06  1.32578718577E-06  1.36045004261E-06
  1.39599039386E-06  1.43243045338E-06  1.46979299740E-06  1.50810137872E-06
  1.54737954134E-06  1.58765203537E-06  1.62894403245E-06  1.67128134141E-06
  1.71469042445E-06  1.75919841365E-06  1.80483312797E-06  1.85162309058E-06
  1.89959754673E-06  1.94878648203E-06  1.99922064114E-06  2.05093154708E-06
  2.10395152083E-06  2.15831370161E-06  2.21405206754E-06  2.27120145693E-06
  2.32979758999E-06  2.38987709123E-06  2.45147751228E-06  2.51463735542E-06
  2.57939609760E-06  2.64579421514E-06  2.71387320903E-06  2.78367563085E-06
  2.85524510939E-06  2.92862637791E-06  3.00386530209E-06  3.08100890870E-06
  3.16010541501E-06  3.24120425891E-06  3.32435612982E-06  3.40961300036E-06
  3.49702815886E-06  3.58665624263E-06  3.67855327214E-06  3.77277668603E-06
  3.86938537699E-06  3.96843972862E-06  4.07000165309E-06  4.17413462992E-06
  4.28090374561E-06  4.39037573434E-06  4.50261901965E-06  4.61770375725E-06
  4.73570187886E-06  4.85668713715E-06  4.98073515182E-06  5.10792345694E-06
  5.23833154933E-06  5.37204093830E-06  5.50913519656E-06  5.64970001250E-06
  5.79382324369E-06  5.94159497185E-06  6.09310755912E-06  6.24845570580E-06
  6.40773650953E-06  6.57104952601E-06  6.73849683118E-06  6.91018308506E-06
  7.08621559716E-06  7.26670439351E-06  7.45176228550E-06  7.64150494032E-06
  7.83605095332E-06  8.03552192209E-06  8.24004252248E-06  8.44974058651E-06
  8.66474718230E-06  8.88519669599E-06  9.11122691568E-06  9.34297911762E-06
  9.58059815449E-06  9.82423254592E-06  1.00740345713E-05  1.03301603651E-05
  1.05927700142E-05  1.08620276583E-05  1.11381015921E-05  1.14211643707E-05
  1.17113929177E-05  1.20089686354E-05  1.23140775182E-05  1.26269102692E-05
  1.29476624190E-05  1.32765344481E-05  1.36137319122E-05  1.39594655708E-05
  1.43139515186E-05  1.46774113210E-05  1.50500721520E-05  1.54321669369E-05
  1.58239344973E-05  1.62256197007E-05  1.66374736135E-05  1.70597536577E-05
  1.74927237721E-05  1.79366545771E-05  1.83918235440E-05  1.88585151681E-05
  1.93370211470E-05  1.98276405623E-05  2.03306800673E-05  2.08464540780E-05
  2.13752849700E-05  2.19175032797E-05  2.24734479112E-05  2.30434663482E-05
  2.36279148705E-05  2.42271587776E-05  2.48415726165E-05  2.54715404158E-05
  2.61174559258E-05  2.67797228648E-05  2.74587551712E-05  2.81549772622E-05
  2.88688242994E-05  2.96007424604E-05  3.03511892179E-05  3.11206336254E-05
  3.19095566109E-05  3.27184512768E-05  3.35478232087E-05  3.43981907910E-05
  3.52700855312E-05  3.61640523918E-05  3.70806501312E-05  3.80204516528E-05
  3.89840443632E-05  3.99720305393E-05  4.09850277044E-05  4.20236690149E-05
  4.30886036554E-05  4.41804972446E-05  4.53000322516E-05  4.64479084223E-05
  4.76248432165E-05  4.88315722570E-05  5.00688497885E-05  5.13374491499E-05
  5.26381632569E-05  5.39718050984E-05  5.53392082439E-05  5.67412273647E-05
  5.81787387686E-05  5.96526409470E-05  6.11638551366E-05  6.27133258956E-05
  6.43020216935E-05  6.59309355171E-05  6.76010854905E-05  6.93135155117E-05
  7.10692959053E-05  7.28695240912E-05  7.47153252706E-05  7.66078531293E-05
  7.85482905588E-05  8.05378503957E-05  8.25777761797E-05  8.46693429308E-05
  8.68138579463E-05  8.90126616178E-05  9.12671282693E-05  9.35786670158E-05
  9.59487226443E-05  9.83787765166E-05  1.00870347496E-04  1.03424992894E-04
  1.06044309449E-04  1.08729934318E-04  1.11483546105E-04  1.14306865905E-04
  1.17201658387E-04  1.20169732889E-04  1.23212944555E-04  1.26333195491E-04
  1.29532435955E-04  1.32812665578E-04  1.36175934609E-04  1.39624345200E-04
  1.43160052721E-04  1.46785267105E-04  1.50502254227E-04  1.54313337327E-04
  1.58220898454E-04  1.62227379962E-04  1.66335286033E-04  1.70547184241E-04
  1.74865707159E-04  1.79293554006E-04  1.83833492330E-04  1.88488359739E-04
  1.93261065677E-04  1.98154593242E-04  2.03172001047E-04  2.08316425135E-04
  2.13591080939E-04  2.18999265291E-04  2.24544358481E-04  2.30229826373E-04
  2.36059222570E-04  2.42036190635E-04  2.48164466367E-04  2.54447880137E-04
  2.60890359284E-04  2.67495930568E-04  2.74268722684E-04  2.81212968850E-04
  2.88333009444E-04  2.95633294723E-04  3.03118387605E-04  3.10792966515E-04
  3.18661828315E-04  3.26729891299E-04  3.35002198271E-04  3.43483919691E-04
  3.52180356910E-04  3.61096945486E-04  3.70239258577E-04  3.79613010425E-04
  3.89224059931E-04  3.99078414313E-04  4.09182232865E-04  4.19541830801E-04
  4.30163683207E-04  4.41054429087E-04  4.52220875512E-04  4.63670001873E-04
  4.75408964249E-04  4.87445099871E-04  4.99785931718E-04  5.12439173211E-04
  5.25412733036E-04  5.38714720093E-04  5.52353448554E-04  5.66337443071E-04
  5.80675444094E-04  5.95376413342E-04  6.10449539397E-04  6.25904243456E-04
  6.41750185210E-04  6.57997268890E-04  6.74655649451E-04  6.91735738924E-04
  7.09248212920E-04  7.27204017306E-04  7.45614375045E-04  7.64490793208E-04
  7.83845070172E-04  8.03689302991E-04  8.24035894954E-04  8.44897563346E-04
  8.66287347388E-04  8.88218616390E-04  9.10705078110E-04  9.33760787319E-04
  9.57400154586E-04  9.81637955284E-04  1.00648933883E-03  1.03196983814E-03
  1.05809537937E-03  1.08488229181E-03  1.11234731818E-03  1.14050762500E-03
  1.16938081338E-03  1.19898493001E-03  1.22933847841E-03  1.26046043055E-03
  1.29237023866E-03  1.32508784741E-03  1.35863370637E-03  1.39302878279E-03
  1.42829457471E-03  1.46445312441E-03  1.50152703215E-03  1.53953947033E-03
  1.57851419797E-03  1.61847557554E-03  1.65944858019E-03  1.70145882140E-03
  1.74453255692E-03  1.78869670925E-03  1.83397888243E-03  1.88040737927E-03
  1.92801121910E-03  1.97682015588E-03  2.02686469678E-03  2.07817612126E-03
  2.13078650063E-03  2.18472871810E-03  2.24003648931E-03  2.29674438341E-03
  2.35488784468E-03  2.41450321469E-03  2.47562775497E-03  2.53829967035E-03
  2.60255813283E-03  2.66844330603E-03  2.73599637033E-03  2.80525954859E-03
  2.87627613256E-03  2.94909050991E-03  3.02374819200E-03  3.10029584231E-03
  3.17878130562E-03  3.25925363789E-03  3.34176313694E-03  3.42636137391E-03
  3.51310122545E-03  3.60203690678E-03  3.69322400560E-03  3.78671951682E-03
  3.88258187818E-03  3.98087100676E-03  4.08164833649E-03  4.18497685646E-03
  4.29092115037E-03  4.39954743684E-03  4.51092361085E-03  4.62511928613E-03
  4.74220583870E-03  4.86225645145E-03  4.98534615993E-03  5.11155189922E-03
  5.24095255201E-03  5.37362899792E-03  5.50966416405E-03  5.64914307681E-03
  5.79215291505E-03  5.93878306459E-03  6.08912517403E-03  6.24327321210E-03
  6.40132352632E-03  6.56337490330E-03  6.72952863042E-03  6.89988855916E-03
  7.07456117004E-03  7.25365563911E-03  7.43728390625E-03  7.62556074511E-03
  7.81860383483E-03  8.01653383364E-03  8.21947445422E-03  8.42755254107E-03
  8.64089814977E-03  8.85964462826E-03  9.08392870022E-03  9.31389055050E-03
  9.54967391273E-03  9.79142615920E-03  1.00392983929E-02  1.02934455421E-02
  1.05540264570E-02  1.08212040092E-02  1.10951451933E-02  1.13760212315E-02
  1.16640076804E-02  1.19592845411E-02  1.22620363710E-02  1.25724524000E-02
  1.28907266482E-02  1.32170580473E-02  1.35516505652E-02  1.38947133329E-02
  1.42464607760E-02  1.46071127480E-02  1.49768946681E-02  1.53560376621E-02
  1.57447787067E-02  1.61433607777E-02  1.65520330018E-02  1.69710508126E-02
  1.74006761097E-02  1.78411774231E-02  1.82928300802E-02  1.87559163788E-02
  1.92307257629E-02  1.97175550038E-02  2.02167083855E-02  2.07284978953E-02
  2.12532434182E-02  2.17912729373E-02  2.23429227384E-02  2.29085376208E-02
  2.34884711121E-02  2.40830856897E-02  2.46927530069E-02  2.53178541257E-02
  2.59587797547E-02  2.66159304933E-02  2.72897170820E-02  2.79805606594E-02
  2.86888930252E-02  2.94151569103E-02  3.01598062531E-02  3.09233064838E-02
  3.17061348148E-02  3.25087805394E-02  3.33317453373E-02  3.41755435882E-02
  3.50407026935E-02  3.59277634058E-02  3.68372801670E-02  3.77698214546E-02
  3.87259701373E-02  3.97063238392E-02  4.07114953131E-02  4.17421128241E-02
  4.27988205416E-02  4.38822789423E-02  4.49931652230E-02  4.61321737238E-02
  4.73000163621E-02  4.84974230775E-02  4.97251422882E-02  5.09839413587E-02
  5.22746070794E-02  5.35979461584E-02  5.49547857256E-02  5.63459738501E-02
  5.77723800696E-02  5.92348959344E-02  6.07344355646E-02  6.22719362213E-02
  6.38483588924E-02  6.54646888935E-02  6.71219364833E-02  6.88211374956E-02
  7.05633539863E-02  7.23496748975E-02  7.41812167378E-02  7.60591242806E-02
  7.79845712791E-02  7.99587612005E-02  8.19829279777E-02  8.40583367808E-02
  8.61862848079E-02  8.83681020957E-02  9.06051523512E-02  9.28988338035E-02
  9.52505800782E-02  9.76618610933E-02  1.00134183978E-01  1.02669094014E-01
  1.05268175604E-01  1.07933053257E-01  1.10665392609E-01  1.13466901461E-01
  1.16339330848E-01  1.19284476130E-01  1.22304178121E-01  1.25400324231E-01
  1.28574849653E-01  1.31829738569E-01  1.35167025390E-01  1.38588796029E-01
  1.42097189204E-01  1.45694397775E-01  1.49382670115E-01  1.53164311514E-01
  1.57041685620E-01  1.61017215919E-01  1.65093387247E-01  1.69272747343E-01
  1.73557908444E-01  1.77951548915E-01  1.82456414924E-01  1.87075322158E-01
  1.91811157586E-01  1.96666881259E-01  2.01645528162E-01  2.06750210111E-01
  2.11984117698E-01  2.17350522288E-01  2.22852778056E-01  2.28494324092E-01
  2.34278686546E-01  2.40209480832E-01  2.46290413891E-01  2.52525286503E-01
  2.58917995667E-01  2.65472537033E-01  2.72193007405E-01  2.79083607293E-01
  2.86148643549E-01  2.93392532049E-01  3.00819800459E-01  3.08435091064E-01
  3.16243163669E-01  3.24248898572E-01  3.32457299620E-01  3.40873497329E-01
  3.49502752098E-01  3.58350457492E-01  3.67422143614E-01  3.76723480563E-01
  3.86260281978E-01  3.96038508671E-01  4.06064272350E-01  4.16343839446E-01
  4.26883635021E-01  4.37690246792E-01  4.48770429243E-01  4.60131107847E-01
  4.71779383400E-01  4.83722536452E-01  4.95968031863E-01  5.08523523466E-01
  5.21396858852E-01  5.34596084276E-01  5.48129449681E-01  5.62005413864E-01
  5.76232649751E-01  5.90820049830E-01  6.05776731700E-01  6.21112043775E-01
  6.36835571122E-01  6.52957141460E-01  6.69486831294E-01  6.86434972218E-01
  7.03812157372E-01  7.21629248063E-01  7.39897380552E-01  7.58627973017E-01
  7.77832732687E-01  7.97523663163E-01  8.17713071918E-01  8.38413577988E-01
  8.59638119865E-01  8.81399963577E-01  9.03712710986E-01  9.26590308284E-01
  9.50047054715E-01  9.74097611510E-01  9.98757011048E-01  1.02404066626E+00
  1.04996438025E+00  1.07654435618E+00  1.10379720741E+00  1.13173996785E+00
  1.16039010264E+00  1.18976551904E+00  1.21988457765E+00  1.25076610386E+00
  1.28242939963E+00  1.31489425554E+00  1.34818096320E+00  1.38231032787E+00
  1.41730368152E+00  1.45318289614E+00  1.48997039740E+00  1.52768917869E+00
  1.56636281547E+00  1.60601548003E+00  1.64667195657E+00  1.68835765672E+00
  1.73109863539E+00  1.77492160708E+00  1.81985396259E+00  1.86592378609E+00
  1.91315987272E+00  1.96159174658E+00  2.01124967917E+00  2.06216470830E+00
  2.11436865753E+00  2.16789415603E+00  2.22277465898E+00  2.27904446847E+00
  2.33673875497E+00  2.39589357929E+00  2.45654591511E+00  2.51873367212E+00
  2.58249571970E+00  2.64787191120E+00  2.71490310887E+00  2.78363120938E+00
  2.85409917004E+00  2.92635103562E+00  3.00043196589E+00  3.07638826383E+00
  3.15426740461E+00  3.23411806522E+00  3.31599015493E+00  3.39993484646E+00
  3.48600460798E+00  3.57425323588E+00  3.66473588843E+00  3.75750912024E+00
  3.85263091759E+00  3.95016073470E+00  4.05015953089E+00  4.15268980866E+00
  4.25781565277E+00  4.36560277029E+00  4.47611853168E+00  4.58943201289E+00
  4.70561403854E+00  4.82473722616E+00  4.94687603164E+00  5.07210679570E+00
  5.20050779165E+00  5.33215927428E+00  5.46714353007E+00  5.60554492856E+00
  5.74744997513E+00  5.89294736506E+00  6.04212803895E+00  6.19508523958E+00
  6.35191457018E+00  6.51271405418E+00  6.67758419651E+00  6.84662804635E+00
  7.01995126163E+00  7.19766217500E+00  7.37987186155E+00  7.56669420828E+00
  7.75824598524E+00  7.95464691851E+00  8.15601976509E+00  8.36249038954E+00
  8.57418784273E+00  8.79124444247E+00  9.01379585619E+00  9.24198118578E+00
  9.47594305448E+00  9.71582769609E+00  9.96178504631E+00  1.02139688365E+01
  1.04725366897E+01  1.07376502193E+01  1.10094751299E+01  1.12881813208E+01
  1.15739429925E+01  1.18669387554E+01  1.21673517414E+01  1.24753697183E+01
  1.27911852074E+01  1.31149956037E+01  1.34470032991E+01  1.37874158095E+01
  1.41364459035E+01  1.44943117364E+01  1.48612369861E+01  1.52374509926E+01
  1.56231889021E+01  1.60186918132E+01  1.64242069282E+01  1.68399877072E+01
  1.72662940267E+01  1.77033923421E+01  1.81515558541E+01  1.86110646793E+01
  1.90822060259E+01  1.95652743724E+01  2.00605716523E+01  2.05684074426E+01
  2.10890991571E+01  2.16229722451E+01  2.21703603947E+01  2.27316057412E+01
  2.33070590814E+01  2.38970800922E+01  2.45020375560E+01  2.51223095909E+01
  2.57582838872E+01  2.64103579494E+01  2.70789393451E+01  2.77644459594E+01
  2.84673062562E+01  2.91879595462E+01  2.99268562611E+01  3.06844582354E+01
  3.14612389949E+01  3.22576840530E+01  3.30742912138E+01  3.39115708832E+01
  3.47700463884E+01  3.56502543044E+01  3.65527447900E+01  3.74780819309E+01
  3.84268440931E+01  3.93996242838E+01  4.03970305223E+01  4.14196862199E+01
  4.24682305697E+01  4.35433189462E+01  4.46456233144E+01  4.57758326506E+01
  4.69346533724E+01  4.81228097804E+01  4.93410445110E+01  5.05901190007E+01
  5.18708139617E+01  5.31839298699E+01  5.45302874657E+01  5.59107282662E+01
  5.73261150919E+01  5.87773326058E+01  6.02652878659E+01  6.17909108928E+01
  6.33551552505E+01  6.49589986426E+01  6.66034435234E+01  6.82895177247E+01
  7.00182750975E+01  7.17907961716E+01  7.36081888304E+01  7.54715890033E+01
  7.73821613762E+01  7.93411001190E+01  8.13496296321E+01  8.34090053120E+01
  8.55205143354E+01  8.76854764642E+01  8.99052448702E+01  9.21812069810E+01
  9.45147853469E+01  9.69074385304E+01  9.93606620176E+01  1.01875989153E+02
  1.04454992098E+02  1.07099282814E+02  1.09810514067E+02  1.12590380467E+02
  1.15440619519E+02  1.18363012717E+02  1.21359386651E+02  1.24431614151E+02
  1.27581615462E+02  1.30811359435E+02  1.34122864766E+02  1.37518201254E+02
  1.40999491094E+02  1.44568910206E+02  1.48228689593E+02  1.51981116737E+02
  1.55828537025E+02  1.59773355222E+02  1.63818036967E+02  1.67965110318E+02
  1.72217167331E+02  1.76576865680E+02  1.81046930317E+02  1.85630155180E+02
  1.90329404932E+02  1.95147616759E+02  2.00087802198E+02
  </PP_R>
  <PP_RAB>
  1.08669683028E-09  1.11420669151E-09  1.14241296820E-09  1.17133329017E-09
  1.20098573359E-09  1.23138883218E-09  1.26256158888E-09  1.29452348767E-09
  1.32729450579E-09  1.36089512617E-09  1.39534635031E-09  1.43066971134E-09
  1.46688728752E-09  1.50402171600E-09  1.54209620701E-09  1.58113455835E-09
  1.62116117026E-09  1.66220106067E-09  1.70427988086E-09  1.74742393145E-09
  1.79166017888E-09  1.83701627225E-09  1.88352056059E-09  1.93120211059E-09
  1.98009072478E-09  2.03021696012E-09  2.08161214716E-09  2.13430840955E-09
  2.18833868417E-09  2.24373674171E-09  2.30053720775E-09  2.35877558444E-09
  2.41848827265E-09  2.47971259476E-09  2.54248681796E-09  2.60685017819E-09
  2.67284290464E-09  2.74050624491E-09  2.80988249080E-09  2.88101500472E-09
  2.95394824679E-09  3.02872780268E-09  3.10540041204E-09  3.18401399775E-09
  3.26461769586E-09  3.34726188629E-09  3.43199822437E-09  3.51887967306E-09
  3.60796053609E-09  3.69929649191E-09  3.79294462846E-09  3.88896347887E-09
  3.98741305806E-09  4.08835490020E-09  4.19185209725E-09  4.29796933831E-09
  4.40677295012E-09  4.51833093848E-09  4.63271303075E-09  4.74999071948E-09
  4.87023730703E-09  4.99352795144E-09  5.11993971338E-09  5.24955160430E-09
  5.38244463586E-09  5.51870187053E-09  5.65840847352E-09  5.80165176601E-09
  5.94852127971E-09  6.09910881284E-09  6.25350848753E-09  6.41181680859E-09
  6.57413272389E-09  6.74055768613E-09  6.91119571636E-09  7.08615346889E-09
  7.26554029801E-09  7.44946832633E-09  7.63805251485E-09  7.83141073484E-09
  8.02966384146E-09  8.23293574938E-09  8.44135351015E-09  8.65504739165E-09
  8.87415095951E-09  9.09880116060E-09  9.32913840861E-09  9.56530667181E-09
  9.80745356306E-09  1.00557304321E-08  1.03102924599E-08  1.05712987562E-08
  1.08389124583E-08  1.11133008335E-08  1.13946353835E-08  1.16830919516E-08
  1.19788508325E-08  1.22820968850E-08  1.25930196480E-08  1.29118134581E-08
  1.32386775720E-08  1.35738162903E-08  1.39174390857E-08  1.42697607335E-08
  1.46310014463E-08  1.50013870114E-08  1.53811489316E-08  1.57705245706E-08
  1.61697573008E-08  1.65790966557E-08  1.69987984858E-08  1.74291251182E-08
  1.78703455212E-08  1.83227354719E-08  1.87865777287E-08  1.92621622081E-08
  1.97497861660E-08  2.02497543831E-08  2.07623793559E-08  2.12879814917E-08
  2.18268893089E-08  2.23794396424E-08  2.29459778542E-08  2.35268580492E-08
  2.41224432962E-08  2.47331058556E-08  2.53592274113E-08  2.60011993096E-08
  2.66594228039E-08  2.73343093053E-08  2.80262806398E-08  2.87357693121E-08
  2.94632187756E-08  3.02090837099E-08  3.09738303050E-08  3.17579365523E-08
  3.25618925437E-08  3.33862007779E-08  3.42313764745E-08  3.50979478956E-08
  3.59864566768E-08  3.68974581648E-08  3.78315217653E-08  3.87892312984E-08
  3.97711853638E-08  4.07779977146E-08  4.18102976415E-08  4.28687303655E-08
  4.39539574414E-08  4.50666571716E-08  4.62075250295E-08  4.73772740948E-08
  4.85766354986E-08  4.98063588809E-08  5.10672128589E-08  5.23599855072E-08
  5.36854848510E-08  5.50445393704E-08  5.64379985188E-08  5.78667332535E-08
  5.93316365801E-08  6.08336241111E-08  6.23736346374E-08  6.39526307158E-08
  6.55715992702E-08  6.72315522087E-08  6.89335270559E-08  7.06785876015E-08
  7.24678245651E-08  7.43023562781E-08  7.61833293826E-08  7.81119195478E-08
  8.00893322056E-08  8.21168033031E-08  8.41956000758E-08  8.63270218393E-08
  8.85124008017E-08  9.07531028959E-08  9.30505286337E-08  9.54061139809E-08
  9.78213312551E-08  1.00297690046E-07  1.02836738158E-07  1.05440062578E-07
  1.08109290471E-07  1.10846090189E-07  1.13652172321E-07  1.16529290762E-07
  1.19479243802E-07  1.22503875259E-07  1.25605075626E-07  1.28784783254E-07
  1.32044985564E-07  1.35387720288E-07  1.38815076744E-07  1.42329197143E-07
  1.45932277923E-07  1.49626571127E-07  1.53414385808E-07  1.57298089475E-07
  1.61280109569E-07  1.65362934980E-07  1.69549117610E-07  1.73841273957E-07
  1.78242086759E-07  1.82754306668E-07  1.87380753968E-07  1.92124320338E-07
  1.96987970663E-07  2.01974744883E-07  2.07087759892E-07  2.12330211493E-07
  2.17705376388E-07  2.23216614230E-07  2.28867369722E-07  2.34661174771E-07
  2.40601650693E-07  2.46692510478E-07  2.52937561113E-07  2.59340705958E-07
  2.65905947186E-07  2.72637388288E-07  2.79539236632E-07  2.86615806098E-07
  2.93871519774E-07  3.01310912716E-07  3.08938634786E-07  3.16759453561E-07
  3.24778257305E-07  3.33000058032E-07  3.41429994636E-07  3.50073336101E-07
  3.58935484796E-07  3.68021979855E-07  3.77338500630E-07  3.86890870252E-07
  3.96685059262E-07  4.06727189348E-07  4.17023537167E-07  4.27580538272E-07
  4.38404791132E-07  4.49503061258E-07  4.60882285430E-07  4.72549576033E-07
  4.84512225504E-07  4.96777710888E-07  5.09353698513E-07  5.22248048781E-07
  5.35468821079E-07  5.49024278822E-07  5.62922894611E-07  5.77173355534E-07
  5.91784568593E-07  6.06765666271E-07  6.22126012243E-07  6.37875207225E-07
  6.54023094975E-07  6.70579768450E-07  6.87555576110E-07  7.04961128386E-07
  7.22807304316E-07  7.41105258341E-07  7.59866427277E-07  7.79102537466E-07
  7.98825612103E-07  8.19047978751E-07  8.39782277049E-07  8.61041466606E-07
  8.82838835110E-07  9.05188006625E-07  9.28102950109E-07  9.51597988151E-07
  9.75687805911E-07  1.00038746031E-06  1.02571238944E-06  1.05167842220E-06
  1.07830178821E-06  1.10559912794E-06  1.13358750312E-06  1.16228440739E-06
  1.19170777724E-06  1.22187600325E-06  1.25280794154E-06  1.28452292558E-06
  1.31704077825E-06  1.35038182429E-06  1.38456690293E-06  1.41961738095E-06
  1.45555516605E-06  1.49240272050E-06  1.53018307525E-06  1.56891984422E-06
  1.60863723917E-06  1.64936008476E-06  1.69111383409E-06  1.73392458462E-06
  1.77781909446E-06  1.82282479911E-06  1.86896982859E-06  1.91628302506E-06
  1.96479396080E-06  2.01453295672E-06  2.06553110132E-06  2.11782027010E-06
  2.17143314549E-06  2.22640323728E-06  2.28276490356E-06  2.34055337223E-06
  2.39980476294E-06  2.46055610975E-06  2.52284538422E-06  2.58671151919E-06
  2.65219443306E-06  2.71933505479E-06  2.78817534944E-06  2.85875834446E-06
  2.93112815650E-06  3.00533001905E-06  3.08141031070E-06  3.15941658410E-06
  3.23939759571E-06  3.32140333628E-06  3.40548506204E-06  3.49169532683E-06
  3.58008801487E-06  3.67071837445E-06  3.76364305251E-06  3.85892013000E-06
  3.95660915818E-06  4.05677119589E-06  4.15946884765E-06  4.26476630285E-06
  4.37272937582E-06  4.48342554698E-06  4.59692400507E-06  4.71329569030E-06
  4.83261333877E-06  4.95495152788E-06  5.08038672301E-06  5.20899732521E-06
  5.34086372031E-06  5.47606832909E-06  5.61469565884E-06  5.75683235616E-06
  5.90256726109E-06  6.05199146271E-06  6.20519835600E-06  6.36228370026E-06
  6.52334567894E-06  6.68848496103E-06  6.85780476394E-06  7.03141091807E-06
  7.20941193292E-06  7.39191906491E-06  7.57904638695E-06  7.77091085970E-06
  7.96763240469E-06  8.16933397931E-06  8.37614165360E-06  8.58818468909E-06
  8.80559561958E-06  9.02851033398E-06  9.25706816124E-06  9.49141195745E-06
  9.73168819510E-06  9.97804705466E-06  1.02306425185E-05  1.04896324668E-05
  1.07551787770E-05  1.10274474240E-05  1.13066085846E-05  1.15928367437E-05
  1.18863108030E-05  1.21872141936E-05  1.24957349898E-05  1.28120660271E-05
  1.31364050227E-05  1.34689546991E-05  1.38099229107E-05  1.41595227736E-05
  1.45179727992E-05  1.48854970304E-05  1.52623251818E-05  1.56486927832E-05
  1.60448413271E-05  1.64510184191E-05  1.68674779331E-05  1.72944801699E-05
  1.77322920198E-05  1.81811871295E-05  1.86414460729E-05  1.91133565270E-05
  1.95972134511E-05  2.00933192716E-05  2.06019840707E-05  2.11235257805E-05
  2.16582703815E-05  2.22065521066E-05  2.27687136496E-05  2.33451063798E-05
  2.39360905615E-05  2.45420355789E-05  2.51633201675E-05  2.58003326504E-05
  2.64534711810E-05  2.71231439922E-05  2.78097696514E-05  2.85137773218E-05
  2.92356070314E-05  2.99757099470E-05  3.07345486571E-05  3.15125974606E-05
  3.23103426633E-05  3.31282828820E-05  3.39669293560E-05  3.48268062665E-05
  3.57084510646E-05  3.66124148070E-05  3.75392625006E-05  3.84895734552E-05
  3.94639416461E-05  4.04629760852E-05  4.14873012016E-05  4.25375572318E-05
  4.36144006199E-05  4.47185044282E-05  4.58505587575E-05  4.70112711785E-05
  4.82013671744E-05  4.94215905939E-05  5.06727041163E-05  5.19554897283E-05
  5.32707492127E-05  5.46193046494E-05  5.60019989296E-05  5.74196962821E-05
  5.88732828139E-05  6.03636670640E-05  6.18917805711E-05  6.34585784557E-05
  6.50650400176E-05  6.67121693476E-05  6.84009959551E-05  7.01325754116E-05
  7.19079900109E-05  7.37283494447E-05  7.55947914969E-05  7.75084827547E-05
  7.94706193373E-05  8.14824276440E-05  8.35451651204E-05  8.56601210447E-05
  8.78286173330E-05  9.00520093663E-05  9.23316868369E-05  9.46690746174E-05
  9.70656336513E-05  9.95228618659E-05  1.02042295109E-04  1.04625508108E-04
  1.07274115456E-04  1.09989772618E-04  1.12774176968E-04  1.15629068850E-04
  1.18556232664E-04  1.21557497983E-04  1.24634740695E-04  1.27789884177E-04
  1.31024900497E-04  1.34341811645E-04  1.37742690798E-04  1.41229663617E-04
  1.44804909573E-04  1.48470663312E-04  1.52229216048E-04  1.56082916999E-04
  1.60034174855E-04  1.64085459279E-04  1.68239302457E-04  1.72498300676E-04
  1.76865115948E-04  1.81342477675E-04  1.85933184353E-04  1.90640105325E-04
  1.95466182568E-04  2.00414432538E-04  2.05487948052E-04  2.10689900224E-04
  2.16023540441E-04  2.21492202403E-04  2.27099304202E-04  2.32848350459E-04
  2.38742934515E-04  2.44786740677E-04  2.50983546520E-04  2.57337225250E-04
  2.63851748122E-04  2.70531186926E-04  2.77379716529E-04  2.84401617484E-04
  2.91601278708E-04  2.98983200224E-04  3.06551995972E-04  3.14312396697E-04
  3.22269252902E-04  3.30427537880E-04  3.38792350826E-04  3.47368920020E-04
  3.56162606097E-04  3.65178905397E-04  3.74423453400E-04  3.83902028250E-04
  3.93620554364E-04  4.03585106139E-04  4.13801911743E-04  4.24277357012E-04
  4.35017989440E-04  4.46030522273E-04  4.57321838702E-04  4.68898996167E-04
  4.80769230769E-04  4.92939961791E-04  5.05418796335E-04  5.18213534079E-04
  5.31332172152E-04  5.44782910128E-04  5.58574155158E-04  5.72714527217E-04
  5.87212864500E-04  6.02078228938E-04  6.17319911869E-04  6.32947439840E-04
  6.48970580565E-04  6.65399349029E-04  6.82244013747E-04  6.99515103182E-04
  7.17223412328E-04  7.35380009454E-04  7.53996243024E-04  7.73083748791E-04
  7.92654457067E-04  8.12720600182E-04  8.33294720129E-04  8.54389676401E-04
  8.76018654034E-04  8.98195171842E-04  9.20933090872E-04  9.44246623062E-04
  9.68150340130E-04  9.92659182676E-04  1.01778846953E-03  1.04355390730E-03
  1.06997160024E-03  1.09705806025E-03  1.12483021727E-03  1.15330542979E-03
  1.18250149575E-03  1.21243666363E-03  1.24312964390E-03  1.27459962066E-03
  1.30686626368E-03  1.33994974066E-03  1.37387072984E-03  1.40865043295E-03
  1.44431058844E-03  1.48087348506E-03  1.51836197581E-03  1.55679949223E-03
  1.59621005901E-03  1.63661830903E-03  1.67804949878E-03  1.72052952409E-03
  1.76408493636E-03  1.80874295913E-03  1.85453150514E-03  1.90147919371E-03
  1.94961536868E-03  1.99897011671E-03  2.04957428614E-03  2.10145950622E-03
  2.15465820689E-03  2.20920363909E-03  2.26512989548E-03  2.32247193178E-03
  2.38126558865E-03  2.44154761403E-03  2.50335568614E-03  2.56672843705E-03
  2.63170547679E-03  2.69832741812E-03  2.76663590193E-03  2.83667362323E-03
  2.90848435789E-03  2.98211298995E-03  3.05760553971E-03  3.13500919247E-03