       #
       # Generated by the Wannier90 code http://www.wannier.org
       # On 14Jul2015 at 15:12:32 
       #
CRYSTAL
PRIMVEC
  -1.6139900   0.0000000   1.6139900
   0.0000000   1.6139900   1.6139900
  -1.6139900   1.6139900   0.0000000
CONVVEC
  -1.6139900   0.0000000   1.6139900
   0.0000000   1.6139900   1.6139900
  -1.6139900   1.6139900   0.0000000
PRIMCOORD
     2  1
C       0.4034975  -0.4034975  -0.4034975
C      -0.4034975   0.4034975   0.4034975


BEGIN_BLOCK_DATAGRID_3D
3D_field
BEGIN_DATAGRID_3D_UNKNOWN
    54    54    54
    3.407312   -3.407312   -3.407312
  -4.7523039   0.0000000   4.7523039
   0.0000000   4.7523039   4.7523039
  -4.7523039   4.7523039   0.0000000
  0.10857E-01  0.65575E-02  0.37477E-02  0.24197E-02  0.52186E-03 -0.23336E-02
 -0.44827E-02 -0.49622E-02 -0.47914E-02 -0.52522E-02 -0.62876E-02 -0.70698E-02
 -0.68885E-02 -0.47373E-02  0.69170E-03  0.90823E-02  0.17056E-01  0.20331E-01
  0.17747E-01  0.12165E-01  0.69889E-02  0.28383E-02 -0.16767E-02 -0.69120E-02
 -0.11315E-01 -0.13436E-01 -0.13596E-01 -0.13204E-01 -0.13245E-01 -0.13848E-01
 -0.14528E-01 -0.14184E-01 -0.11448E-01 -0.60921E-02 -0.36605E-04  0.39011E-02
  0.45548E-02  0.31833E-02  0.16102E-02  0.31579E-03 -0.12752E-02 -0.34065E-02
 -0.57064E-02 -0.78976E-02 -0.99288E-02 -0.11562E-01 -0.12678E-01 -0.13887E-01
 -0.15682E-01 -0.16717E-01 -0.14255E-01 -0.74460E-02  0.61174E-03  0.54562E-02
  0.65576E-02  0.40844E-02  0.27721E-02  0.89896E-03 -0.21565E-02 -0.46704E-02
 -0.51300E-02 -0.43967E-02 -0.42786E-02 -0.49862E-02 -0.51973E-02 -0.39883E-02
 -0.13929E-02  0.26003E-02  0.80256E-02  0.13586E-01  0.16723E-01  0.15991E-01
  0.12632E-01  0.88229E-02  0.49330E-02 -0.32946E-03 -0.71791E-02 -0.13454E-01
 -0.16610E-01 -0.16264E-01 -0.14177E-01 -0.12262E-01 -0.11301E-01 -0.11128E-01
 -0.11032E-01 -0.98706E-02 -0.67732E-02 -0.23191E-02  0.14674E-02  0.29081E-02
  0.22555E-02  0.10467E-02  0.15194E-03 -0.89002E-03 -0.26803E-02 -0.49045E-02
 -0.67853E-02 -0.80146E-02 -0.88110E-02 -0.94898E-02 -0.10430E-01 -0.11952E-01
 -0.13466E-01 -0.13090E-01 -0.92822E-02 -0.31045E-02  0.21092E-02  0.39561E-02
  0.37477E-02  0.27721E-02  0.99778E-03 -0.21544E-02 -0.49491E-02 -0.54679E-02
 -0.42405E-02 -0.34184E-02 -0.37678E-02 -0.38713E-02 -0.23383E-02  0.52748E-03
  0.37072E-02  0.69054E-02  0.10114E-01  0.12550E-01  0.13199E-01  0.12116E-01
  0.10075E-01  0.69036E-02  0.13724E-02 -0.66455E-02 -0.14694E-01 -0.19337E-01
 -0.19144E-01 -0.15618E-01 -0.11413E-01 -0.82700E-02 -0.65655E-02 -0.58792E-02
 -0.53815E-02 -0.41327E-02 -0.18036E-02  0.79066E-03  0.23259E-02  0.22973E-02
  0.14077E-02  0.51986E-03 -0.37133E-03 -0.17800E-02 -0.36382E-02 -0.51188E-02
 -0.56018E-02 -0.53987E-02 -0.53544E-02 -0.60323E-02 -0.74049E-02 -0.89145E-02
 -0.95231E-02 -0.81536E-02 -0.47562E-02 -0.85674E-03  0.15937E-02  0.20485E-02
  0.24197E-02  0.89896E-03 -0.21544E-02 -0.50851E-02 -0.57340E-02 -0.42071E-02
 -0.27051E-02 -0.25687E-02 -0.27076E-02 -0.14371E-02  0.11958E-02  0.38108E-02
  0.57136E-02  0.73851E-02  0.91709E-02  0.10578E-01  0.11026E-01  0.10321E-01
  0.79694E-02  0.29597E-02 -0.48240E-02 -0.13212E-01 -0.18691E-01 -0.19093E-01
 -0.15165E-01 -0.95693E-02 -0.47465E-02 -0.17452E-02 -0.41358E-03 -0.49390E-04
  0.13511E-03  0.67293E-03  0.15730E-02  0.23737E-02  0.25950E-02  0.21665E-02
  0.13648E-02  0.38598E-03 -0.81404E-03 -0.21421E-02 -0.30406E-02 -0.28976E-02
 -0.18614E-02 -0.95409E-03 -0.11434E-02 -0.24155E-02 -0.39087E-02 -0.47727E-02
 -0.46688E-02 -0.36524E-02 -0.20342E-02 -0.40007E-03  0.63969E-03  0.92002E-03
  0.52186E-03 -0.21565E-02 -0.49491E-02 -0.57340E-02 -0.42075E-02 -0.22817E-02
 -0.15978E-02 -0.15760E-02 -0.61196E-03  0.15265E-02  0.35571E-02  0.46648E-02
  0.54841E-02  0.68634E-02  0.85529E-02  0.95962E-02  0.93373E-02  0.74311E-02
  0.34352E-02 -0.26250E-02 -0.92441E-02 -0.13753E-01 -0.14145E-01 -0.10552E-01
 -0.49724E-02  0.20868E-03  0.35228E-02  0.48120E-02  0.48067E-02  0.43366E-02
  0.37927E-02  0.32194E-02  0.26944E-02  0.23570E-02  0.21130E-02  0.16320E-02
  0.75349E-03 -0.28268E-03 -0.10486E-02 -0.11691E-02 -0.38986E-03  0.11860E-02
  0.27743E-02  0.32654E-02  0.22998E-02  0.75297E-03 -0.23033E-03 -0.47745E-03
 -0.62983E-03 -0.95243E-03 -0.96456E-03 -0.35520E-03  0.36404E-03  0.47595E-03
 -0.23336E-02 -0.46704E-02 -0.54679E-02 -0.42071E-02 -0.22817E-02 -0.12153E-02
 -0.81051E-03  0.19532E-03  0.20487E-02  0.35976E-02  0.40749E-02  0.42497E-02
  0.52431E-02  0.68677E-02  0.78475E-02  0.73031E-02  0.53116E-02  0.22601E-02
 -0.14675E-02 -0.49956E-02 -0.68689E-02 -0.59740E-02 -0.24437E-02  0.24300E-02
  0.69530E-02  0.97713E-02  0.10433E-01  0.95627E-02  0.82365E-02  0.69620E-02
  0.54850E-02  0.36595E-02  0.20077E-02  0.10629E-02  0.58153E-03 -0.42568E-04
 -0.79324E-03 -0.10040E-02 -0.21816E-03  0.14169E-02  0.34988E-02  0.55088E-02
  0.66366E-02  0.62335E-02  0.47209E-02  0.33958E-02  0.29152E-02  0.25416E-02
  0.14210E-02  0.44164E-04 -0.39094E-03  0.21724E-03  0.67563E-03  0.18189E-03
 -0.44827E-02 -0.51300E-02 -0.42405E-02 -0.27051E-02 -0.15978E-02 -0.81052E-03
  0.55209E-03  0.25333E-02  0.39472E-02  0.40007E-02  0.35469E-02  0.39821E-02
  0.52762E-02  0.59347E-02  0.48560E-02  0.24708E-02 -0.39006E-04 -0.18602E-02
 -0.25531E-02 -0.16402E-02  0.11306E-02  0.53017E-02  0.98815E-02  0.13854E-01
  0.16343E-01  0.16747E-01  0.15246E-01  0.12900E-01  0.10670E-01  0.84786E-02
  0.57560E-02  0.27052E-02  0.28421E-03 -0.10614E-02 -0.18314E-02 -0.23862E-02
 -0.21879E-02 -0.60553E-03  0.20839E-02  0.50157E-02  0.75664E-02  0.92992E-02
  0.96262E-02  0.83970E-02  0.65730E-02  0.53730E-02  0.47466E-02  0.36087E-02
  0.17237E-02  0.32506E-03  0.35578E-03  0.10093E-02  0.88884E-03  0.25298E-04
 -0.49622E-02 -0.43967E-02 -0.34184E-02 -0.25687E-02 -0.15760E-02  0.19532E-03
  0.25333E-02  0.41529E-02  0.41363E-02  0.32415E-02  0.30575E-02  0.38891E-02
  0.42592E-02  0.28020E-02  0.70821E-06 -0.24165E-02 -0.32538E-02 -0.23943E-02
 -0.18361E-04  0.38018E-02  0.86770E-02  0.13756E-01  0.18205E-01  0.21417E-01
  0.22783E-01  0.21899E-01  0.19222E-01  0.15889E-01  0.12573E-01  0.90032E-02
  0.49536E-02  0.10933E-02 -0.16940E-02 -0.33378E-02 -0.42069E-02 -0.40551E-02
 -0.22081E-02  0.12528E-02  0.52752E-02  0.88532E-02  0.11532E-01  0.12859E-01
  0.12320E-01  0.10251E-01  0.80007E-02  0.64745E-02  0.51455E-02  0.32291E-02
  0.12592E-02  0.46892E-03  0.88181E-03  0.12010E-02  0.74112E-03  0.39152E-03
 -0.47914E-02 -0.42786E-02 -0.37678E-02 -0.27076E-02 -0.61197E-03  0.20487E-02
  0.39472E-02  0.41363E-02  0.31678E-02  0.25681E-02  0.29660E-02  0.31686E-02
  0.16178E-02 -0.15002E-02 -0.42643E-02 -0.50721E-02 -0.39375E-02 -0.16017E-02
  0.17979E-02  0.65688E-02  0.12474E-01  0.18572E-01  0.23835E-01  0.27408E-01
  0.28521E-01  0.26858E-01  0.23052E-01  0.18291E-01  0.13342E-01  0.83589E-02
  0.35701E-02 -0.45513E-03 -0.33520E-02 -0.51551E-02 -0.57014E-02 -0.44143E-02
 -0.10872E-02  0.35339E-02  0.83158E-02  0.12459E-01  0.15296E-01  0.16014E-01
  0.14390E-01  0.11499E-01  0.88410E-02  0.67870E-02  0.46624E-02  0.23289E-02
  0.69619E-03  0.35371E-03  0.62688E-03  0.63187E-03  0.58814E-03  0.13050E-02
 -0.52522E-02 -0.49862E-02 -0.38713E-02 -0.14371E-02  0.15265E-02  0.35976E-02
  0.40007E-02  0.32415E-02  0.25681E-02  0.26498E-02  0.26934E-02  0.12034E-02
 -0.21171E-02 -0.56079E-02 -0.72567E-02 -0.67328E-02 -0.51572E-02 -0.30338E-02
  0.65724E-03  0.69960E-02  0.15433E-01  0.24011E-01  0.30792E-01  0.34592E-01
  0.34851E-01  0.31636E-01  0.25899E-01  0.19166E-01  0.12697E-01  0.70158E-02
  0.21643E-02 -0.18775E-02 -0.49790E-02 -0.67696E-02 -0.67155E-02 -0.45010E-02
 -0.36957E-03  0.49868E-02  0.10667E-01  0.15476E-01  0.18016E-01  0.17564E-01
  0.14920E-01  0.11776E-01  0.90787E-02  0.65310E-02  0.38073E-02  0.14758E-02
  0.23248E-03 -0.12391E-03 -0.22637E-03 -0.71190E-04  0.78913E-03  0.22431E-02
 -0.62876E-02 -0.51973E-02 -0.23383E-02  0.11958E-02  0.35571E-02  0.40749E-02
  0.35469E-02  0.30575E-02  0.29660E-02  0.26934E-02  0.11403E-02 -0.22672E-02
 -0.65448E-02 -0.96311E-02 -0.10417E-01 -0.97995E-02 -0.89554E-02 -0.69521E-02
 -0.12429E-02  0.92050E-02  0.22096E-01  0.33499E-01  0.40703E-01  0.43058E-01
  0.40950E-01  0.35126E-01  0.27002E-01  0.18566E-01  0.11295E-01  0.53554E-02
  0.15507E-03 -0.44779E-02 -0.79286E-02 -0.94424E-02 -0.87352E-02 -0.58499E-02
 -0.82676E-03  0.59192E-02  0.12854E-01  0.17612E-01  0.18687E-01  0.16766E-01
  0.13877E-01  0.11255E-01  0.86213E-02  0.55654E-02  0.27040E-02  0.88302E-03
 -0.41535E-04 -0.72177E-03 -0.10360E-02 -0.32569E-03  0.12416E-02  0.26935E-02
 -0.70698E-02 -0.39883E-02  0.52748E-03  0.38108E-02  0.46648E-02  0.42497E-02
  0.39821E-02  0.38891E-02  0.31686E-02  0.12034E-02 -0.22672E-02 -0.69056E-02
 -0.11309E-01 -0.13850E-01 -0.14539E-01 -0.14913E-01 -0.15050E-01 -0.11717E-01
 -0.12230E-02  0.15815E-01  0.33840E-01  0.46786E-01  0.52263E-01  0.51321E-01
  0.45754E-01  0.36987E-01  0.26791E-01  0.17215E-01  0.92170E-02  0.22267E-02
 -0.43971E-02 -0.10051E-01 -0.13521E-01 -0.14333E-01 -0.12660E-01 -0.82639E-02
 -0.79637E-03  0.84176E-02  0.15959E-01  0.18859E-01  0.17404E-01  0.14479E-01
  0.12155E-01  0.99840E-02  0.69238E-02  0.35998E-02  0.14834E-02  0.62664E-03
 -0.21171E-03 -0.13157E-02 -0.14861E-02 -0.14913E-03  0.15357E-02  0.25616E-02
 -0.68885E-02 -0.13929E-02  0.37072E-02  0.57136E-02  0.54841E-02  0.52431E-02
  0.52762E-02  0.42592E-02  0.16178E-02 -0.21171E-02 -0.65448E-02 -0.11309E-01
 -0.15288E-01 -0.17683E-01 -0.19640E-01 -0.22450E-01 -0.23518E-01 -0.16555E-01
  0.20079E-02  0.27578E-01  0.50170E-01  0.62474E-01  0.64092E-01  0.58650E-01
  0.49281E-01  0.37734E-01  0.25718E-01  0.14761E-01  0.50060E-02 -0.42686E-02
 -0.12778E-01 -0.18986E-01 -0.21833E-01 -0.21428E-01 -0.17619E-01 -0.94603E-02
  0.24536E-02  0.14010E-01  0.20038E-01  0.19230E-01  0.15212E-01  0.12060E-01
  0.10117E-01  0.73800E-02  0.36460E-02  0.10297E-02  0.53054E-03  0.46045E-03
 -0.75685E-03 -0.20737E-02 -0.16598E-02  0.72770E-04  0.13093E-02  0.19913E-02
 -0.47373E-02  0.26003E-02  0.69054E-02  0.73851E-02  0.68635E-02  0.68677E-02
  0.59347E-02  0.28020E-02 -0.15002E-02 -0.56079E-02 -0.96311E-02 -0.13850E-01
 -0.17683E-01 -0.21489E-01 -0.27099E-01 -0.33567E-01 -0.33608E-01 -0.18425E-01
  0.12235E-01  0.47002E-01  0.71655E-01  0.80044E-01  0.75687E-01  0.64975E-01
  0.51675E-01  0.37280E-01  0.23052E-01  0.98408E-02 -0.25702E-02 -0.14255E-01
 -0.23932E-01 -0.30031E-01 -0.32122E-01 -0.29945E-01 -0.22044E-01 -0.77794E-02
  0.89859E-02  0.20772E-01  0.22920E-01  0.18088E-01  0.12671E-01  0.96526E-02
  0.70899E-02  0.31848E-02 -0.28938E-03 -0.98633E-03  0.13403E-04 -0.23227E-03
 -0.20317E-02 -0.28675E-02 -0.15848E-02 -0.12439E-04  0.42404E-03  0.11575E-02
  0.69172E-03  0.80256E-02  0.10114E-01  0.91709E-02  0.85529E-02  0.78475E-02
  0.48560E-02  0.70610E-06 -0.42643E-02 -0.72567E-02 -0.10417E-01 -0.14539E-01
 -0.19640E-01 -0.27099E-01 -0.37601E-01 -0.45240E-01 -0.37824E-01 -0.78987E-02
  0.36773E-01  0.77079E-01  0.97840E-01  0.97859E-01  0.85700E-01  0.69410E-01
  0.52153E-01  0.34700E-01  0.17872E-01  0.21572E-02 -0.12517E-01 -0.25616E-01
 -0.35830E-01 -0.42271E-01 -0.44260E-01 -0.39653E-01 -0.25979E-01 -0.52125E-02
  0.14245E-01  0.23480E-01  0.21277E-01  0.14378E-01  0.92976E-02  0.63325E-02
  0.26840E-02 -0.14339E-02 -0.30472E-02 -0.16561E-02 -0.48782E-03 -0.17233E-02
 -0.34366E-02 -0.30006E-02 -0.12233E-02 -0.59530E-03 -0.88815E-03  0.42145E-03
  0.90824E-02  0.13586E-01  0.12550E-01  0.10578E-01  0.95961E-02  0.73031E-02
  0.24708E-02 -0.24165E-02 -0.50721E-02 -0.67328E-02 -0.97995E-02 -0.14913E-01
 -0.22450E-01 -0.33567E-01 -0.45240E-01 -0.45894E-01 -0.22449E-01  0.24963E-01
  0.78162E-01  0.11420E+00  0.12307E+00  0.11141E+00  0.91487E-01  0.70511E-01
  0.49904E-01  0.29766E-01  0.10773E-01 -0.66953E-02 -0.22618E-01 -0.36594E-01
 -0.48068E-01 -0.56317E-01 -0.58812E-01 -0.51131E-01 -0.31667E-01 -0.67397E-02
  0.12085E-01  0.17787E-01  0.13664E-01  0.79515E-02  0.45775E-02  0.17016E-02
 -0.21031E-02 -0.45269E-02 -0.35542E-02 -0.13609E-02 -0.13671E-02 -0.31981E-02
 -0.36599E-02 -0.19866E-02 -0.81805E-03 -0.15506E-02 -0.18937E-02  0.34728E-03
  0.17056E-01  0.16723E-01  0.13199E-01  0.11026E-01  0.93373E-02  0.53116E-02
 -0.39010E-04 -0.32539E-02 -0.39375E-02 -0.51572E-02 -0.89554E-02 -0.15050E-01
 -0.23518E-01 -0.33608E-01 -0.37824E-01 -0.22449E-01  0.19725E-01  0.77307E-01
  0.12557E+00  0.14584E+00  0.13830E+00  0.11623E+00  0.91570E-01  0.68235E-01
  0.45739E-01  0.23967E-01  0.36103E-02 -0.15047E-01 -0.32083E-01 -0.47622E-01
 -0.61669E-01 -0.72517E-01 -0.75165E-01 -0.64294E-01 -0.41121E-01 -0.15704E-01
  0.52512E-03  0.45640E-02  0.23668E-02  0.26604E-03 -0.10263E-02 -0.32816E-02
 -0.54671E-02 -0.49315E-02 -0.22126E-02 -0.83292E-03 -0.20829E-02 -0.32254E-02
 -0.20346E-02 -0.29764E-03 -0.68465E-03 -0.22100E-02 -0.17011E-02  0.11646E-02
  0.20331E-01  0.15991E-01  0.12116E-01  0.10321E-01  0.74311E-02  0.22601E-02
 -0.18602E-02 -0.23943E-02 -0.16017E-02 -0.30338E-02 -0.69521E-02 -0.11717E-01
 -0.16555E-01 -0.18425E-01 -0.78987E-02  0.24963E-01  0.77307E-01  0.12961E+00
  0.15947E+00  0.15924E+00  0.13871E+00  0.11241E+00  0.87832E-01  0.64967E-01
  0.42224E-01  0.19547E-01 -0.23454E-02 -0.22881E-01 -0.41815E-01 -0.59530E-01
 -0.76077E-01 -0.88407E-01 -0.90067E-01 -0.76815E-01 -0.53012E-01 -0.29835E-01
 -0.15760E-01 -0.10351E-01 -0.82280E-02 -0.65697E-02 -0.61333E-02 -0.67036E-02
 -0.57583E-02 -0.24518E-02  0.37710E-03  0.19537E-03 -0.13811E-02 -0.11494E-02
  0.71417E-03  0.11793E-02 -0.56681E-03 -0.16911E-02 -0.12867E-03  0.23043E-02
  0.17747E-01  0.12632E-01  0.10075E-01  0.79694E-02  0.34352E-02 -0.14675E-02
 -0.25531E-02 -0.18364E-04  0.17979E-02  0.65724E-03 -0.12429E-02 -0.12230E-02
  0.20079E-02  0.12235E-01  0.36773E-01  0.78162E-01  0.12557E+00  0.15947E+00
  0.16720E+00  0.15231E+00  0.12816E+00  0.10498E+00  0.84574E-01  0.64258E-01
  0.41981E-01  0.17647E-01 -0.73963E-02 -0.31043E-01 -0.51977E-01 -0.70774E-01
 -0.87694E-01 -0.99109E-01 -0.98756E-01 -0.84520E-01 -0.62552E-01 -0.42470E-01
 -0.29129E-01 -0.20904E-01 -0.14968E-01 -0.10937E-01 -0.86969E-02 -0.60935E-02
 -0.14555E-02  0.32404E-02  0.46151E-02  0.27950E-02  0.13728E-02  0.22705E-02
  0.33481E-02  0.22525E-02  0.25024E-03  0.13269E-03  0.18538E-02  0.28366E-02
  0.12165E-01  0.88229E-02  0.69036E-02  0.29597E-02 -0.26250E-02 -0.49956E-02
 -0.16402E-02  0.38018E-02  0.65688E-02  0.69960E-02  0.92050E-02  0.15815E-01
  0.27578E-01  0.47002E-01  0.77079E-01  0.11420E+00  0.14584E+00  0.15924E+00
  0.15231E+00  0.13407E+00  0.11515E+00  0.99684E-01  0.85415E-01  0.68205E-01
  0.45361E-01  0.17151E-01 -0.12763E-01 -0.39416E-01 -0.60586E-01 -0.77853E-01
 -0.92332E-01 -0.10069E+00 -0.97924E-01 -0.83964E-01 -0.65055E-01 -0.47997E-01
 -0.34992E-01 -0.24940E-01 -0.17155E-01 -0.11427E-01 -0.60064E-02  0.11037E-02
  0.86191E-02  0.12468E-01  0.10920E-01  0.71794E-02  0.53881E-02  0.57036E-02
  0.53533E-02  0.34126E-02  0.19053E-02  0.22026E-02  0.29294E-02  0.24302E-02
  0.69889E-02  0.49330E-02  0.13724E-02 -0.48240E-02 -0.92441E-02 -0.68689E-02
  0.11306E-02  0.86770E-02  0.12474E-01  0.15433E-01  0.22096E-01  0.33840E-01
  0.50170E-01  0.71655E-01  0.97840E-01  0.12307E+00  0.13830E+00  0.13871E+00
  0.12816E+00  0.11515E+00  0.10541E+00  0.98686E-01  0.90387E-01  0.74861E-01
  0.48881E-01  0.14838E-01 -0.19525E-01 -0.46684E-01 -0.65156E-01 -0.78491E-01
 -0.88676E-01 -0.92907E-01 -0.87879E-01 -0.75086E-01 -0.59781E-01 -0.45885E-01
 -0.34032E-01 -0.23797E-01 -0.14968E-01 -0.62914E-02  0.41581E-02  0.15604E-01
  0.23416E-01  0.23624E-01  0.17878E-01  0.11885E-01  0.91593E-02  0.83605E-02
  0.68964E-02  0.47632E-02  0.35188E-02  0.32686E-02  0.27381E-02  0.16093E-02
  0.28383E-02 -0.32946E-03 -0.66455E-02 -0.13212E-01 -0.13753E-01 -0.59739E-02
  0.53017E-02  0.13756E-01  0.18572E-01  0.24011E-01  0.33499E-01  0.46786E-01
  0.62474E-01  0.80044E-01  0.97859E-01  0.11141E+00  0.11623E+00  0.11241E+00
  0.10498E+00  0.99684E-01  0.98686E-01  0.99190E-01  0.94493E-01  0.77467E-01
  0.46141E-01  0.71868E-02 -0.27857E-01 -0.51502E-01 -0.64949E-01 -0.73442E-01
 -0.78869E-01 -0.78931E-01 -0.72296E-01 -0.61494E-01 -0.50126E-01 -0.39551E-01
 -0.29381E-01 -0.19214E-01 -0.82280E-02  0.51849E-02  0.20742E-01  0.33751E-01
  0.38066E-01  0.32492E-01  0.22579E-01  0.15035E-01  0.11710E-01  0.10060E-01
  0.79231E-02  0.56725E-02  0.42145E-02  0.32180E-02  0.20620E-02  0.98421E-03
 -0.16767E-02 -0.71791E-02 -0.14694E-01 -0.18691E-01 -0.14145E-01 -0.24437E-02
  0.98815E-02  0.18205E-01  0.23835E-01  0.30792E-01  0.40703E-01  0.52263E-01
  0.64092E-01  0.75687E-01  0.85700E-01  0.91487E-01  0.91570E-01  0.87832E-01
  0.84574E-01  0.85415E-01  0.90387E-01  0.94493E-01  0.89148E-01  0.67727E-01
  0.32143E-01 -0.66062E-02 -0.36442E-01 -0.53197E-01 -0.61050E-01 -0.65151E-01
 -0.66288E-01 -0.63018E-01 -0.56011E-01 -0.47928E-01 -0.40226E-01 -0.32273E-01
 -0.23101E-01 -0.11975E-01  0.23669E-02  0.20253E-01  0.37882E-01  0.47972E-01
  0.45976E-01  0.35059E-01  0.23276E-01  0.16067E-01  0.12895E-01  0.10651E-01
  0.80338E-02  0.57377E-02  0.41897E-02  0.29169E-02  0.16338E-02  0.53766E-03
 -0.69120E-02 -0.13454E-01 -0.19337E-01 -0.19093E-01 -0.10552E-01  0.24300E-02
  0.13854E-01  0.21417E-01  0.27408E-01  0.34592E-01  0.43058E-01  0.51321E-01
  0.58650E-01  0.64975E-01  0.69410E-01  0.70511E-01  0.68235E-01  0.64967E-01
  0.64258E-01  0.68205E-01  0.74861E-01  0.77467E-01  0.67727E-01  0.42541E-01
  0.83210E-02 -0.22887E-01 -0.42736E-01 -0.51665E-01 -0.54898E-01 -0.55592E-01
 -0.53473E-01 -0.48466E-01 -0.42480E-01 -0.37118E-01 -0.31798E-01 -0.25008E-01
 -0.15802E-01 -0.32148E-02  0.13664E-01  0.32843E-01  0.47805E-01  0.51690E-01
  0.43937E-01  0.31220E-01  0.21067E-01  0.15732E-01  0.12808E-01  0.99812E-02
  0.72896E-02  0.54485E-02  0.41662E-02  0.27586E-02  0.12152E-02 -0.88968E-04
 -0.11315E-01 -0.16610E-01 -0.19144E-01 -0.15165E-01 -0.49723E-02  0.69530E-02
  0.16343E-01  0.22783E-01  0.28521E-01  0.34851E-01  0.40950E-01  0.45754E-01
  0.49281E-01  0.51675E-01  0.52153E-01  0.49904E-01  0.45739E-01  0.42224E-01
  0.41981E-01  0.45361E-01  0.48881E-01  0.46141E-01  0.32143E-01  0.83210E-02
 -0.17212E-01 -0.35798E-01 -0.44769E-01 -0.47404E-01 -0.47458E-01 -0.45698E-01
 -0.41762E-01 -0.36797E-01 -0.32513E-01 -0.28843E-01 -0.24245E-01 -0.17612E-01
 -0.83394E-02  0.46334E-02  0.21277E-01  0.37556E-01  0.46575E-01  0.44581E-01
  0.34954E-01  0.24826E-01  0.18369E-01  0.14688E-01  0.11482E-01  0.84414E-02
  0.64600E-02  0.53767E-02  0.40547E-02  0.20972E-02  0.23836E-03 -0.83677E-03
 -0.13436E-01 -0.16264E-01 -0.15618E-01 -0.95693E-02  0.20868E-03  0.97713E-02
  0.16747E-01  0.21899E-01  0.26858E-01  0.31636E-01  0.35126E-01  0.36987E-01
  0.37734E-01  0.37280E-01  0.34700E-01  0.29766E-01  0.23967E-01  0.19547E-01
  0.17647E-01  0.17151E-01  0.14838E-01  0.71868E-02 -0.66062E-02 -0.22887E-01
 -0.35798E-01 -0.42032E-01 -0.42912E-01 -0.41595E-01 -0.39441E-01 -0.36076E-01
 -0.31805E-01 -0.27971E-01 -0.24975E-01 -0.21649E-01 -0.16937E-01 -0.10678E-01
 -0.23063E-02  0.92666E-02  0.22920E-01  0.33831E-01  0.37042E-01  0.32569E-01
  0.25329E-01  0.19778E-01  0.16221E-01  0.12818E-01  0.92984E-02  0.69858E-02
  0.61218E-02  0.51744E-02  0.30349E-02  0.50521E-03 -0.98156E-03 -0.11771E-02
 -0.13596E-01 -0.14177E-01 -0.11413E-01 -0.47465E-02  0.35228E-02  0.10433E-01
  0.15246E-01  0.19222E-01  0.23052E-01  0.25899E-01  0.27002E-01  0.26791E-01
  0.25718E-01  0.23052E-01  0.17872E-01  0.10773E-01  0.36103E-02 -0.23454E-02
 -0.73963E-02 -0.12763E-01 -0.19525E-01 -0.27857E-01 -0.36442E-01 -0.42736E-01
 -0.44769E-01 -0.42912E-01 -0.39300E-01 -0.35503E-01 -0.31595E-01 -0.27493E-01
 -0.23900E-01 -0.21215E-01 -0.18572E-01 -0.14960E-01 -0.10486E-01 -0.53988E-02
  0.13029E-02  0.10458E-01  0.20038E-01  0.25858E-01  0.25875E-01  0.22413E-01
  0.19088E-01  0.16737E-01  0.13848E-01  0.10082E-01  0.72119E-02  0.63172E-02
  0.59373E-02  0.40971E-02  0.10816E-02 -0.10787E-02 -0.13877E-02 -0.87485E-03
 -0.13204E-01 -0.12262E-01 -0.82700E-02 -0.17452E-02  0.48120E-02  0.95627E-02
  0.12900E-01  0.15889E-01  0.18291E-01  0.19166E-01  0.18566E-01  0.17215E-01
  0.14761E-01  0.98408E-02  0.21572E-02 -0.66953E-02 -0.15047E-01 -0.22881E-01
 -0.31043E-01 -0.39416E-01 -0.46684E-01 -0.51502E-01 -0.53197E-01 -0.51665E-01
 -0.47404E-01 -0.41595E-01 -0.35503E-01 -0.29781E-01 -0.24703E-01 -0.20728E-01
 -0.18047E-01 -0.15848E-01 -0.12982E-01 -0.94061E-02 -0.58919E-02 -0.22123E-02
  0.30147E-02  0.99020E-02  0.15959E-01  0.18536E-01  0.17943E-01  0.16645E-01
  0.15736E-01  0.13969E-01  0.10602E-01  0.73293E-02  0.61094E-02  0.62309E-02
  0.52153E-02  0.23101E-02 -0.50578E-03 -0.13021E-02 -0.64764E-03 -0.45658E-03
 -0.13245E-01 -0.11301E-01 -0.65655E-02 -0.41358E-03  0.48067E-02  0.82365E-02
  0.10670E-01  0.12573E-01  0.13342E-01  0.12697E-01  0.11295E-01  0.92170E-02
  0.50060E-02 -0.25702E-02 -0.12517E-01 -0.22618E-01 -0.32083E-01 -0.41815E-01
 -0.51977E-01 -0.60586E-01 -0.65156E-01 -0.64949E-01 -0.61050E-01 -0.54898E-01
 -0.47458E-01 -0.39441E-01 -0.31595E-01 -0.24703E-01 -0.19469E-01 -0.16115E-01
 -0.13898E-01 -0.11539E-01 -0.85488E-02 -0.56384E-02 -0.32538E-02 -0.39620E-03
  0.40634E-02  0.92566E-02  0.12854E-01  0.13880E-01  0.13680E-01  0.13564E-01
  0.12851E-01  0.10435E-01  0.72883E-02  0.56690E-02  0.59570E-02  0.59467E-02
  0.38756E-02  0.86813E-03 -0.66838E-03 -0.28757E-03  0.16808E-03 -0.65220E-03
 -0.13848E-01 -0.11128E-01 -0.58792E-02 -0.49390E-04  0.43366E-02  0.69620E-02
  0.84786E-02  0.90032E-02  0.83589E-02  0.70158E-02  0.53554E-02  0.22267E-02
 -0.42686E-02 -0.14255E-01 -0.25616E-01 -0.36594E-01 -0.47622E-01 -0.59530E-01
 -0.70774E-01 -0.77853E-01 -0.78491E-01 -0.73442E-01 -0.65151E-01 -0.55592E-01
 -0.45698E-01 -0.36076E-01 -0.27493E-01 -0.20728E-01 -0.16115E-01 -0.13167E-01
 -0.10758E-01 -0.80939E-02 -0.54538E-02 -0.34706E-02 -0.17365E-02  0.10164E-02
  0.50410E-02  0.87828E-02  0.10667E-01  0.10974E-01  0.10986E-01  0.10816E-01
  0.94552E-02  0.69780E-02  0.51716E-02  0.52230E-02  0.58614E-02  0.49558E-02
  0.24276E-02  0.31563E-03 -0.34214E-04  0.37011E-03 -0.15503E-03 -0.15068E-02
 -0.14528E-01 -0.11032E-01 -0.53815E-02  0.13511E-03  0.37927E-02  0.54850E-02
  0.57560E-02  0.49536E-02  0.35701E-02  0.21643E-02  0.15508E-03 -0.43971E-02
 -0.12778E-01 -0.23932E-01 -0.35830E-01 -0.48068E-01 -0.61669E-01 -0.76077E-01
 -0.87694E-01 -0.92332E-01 -0.88676E-01 -0.78869E-01 -0.66288E-01 -0.53473E-01
 -0.41762E-01 -0.31805E-01 -0.23900E-01 -0.18047E-01 -0.13898E-01 -0.10758E-01
 -0.79500E-02 -0.53828E-02 -0.34633E-02 -0.21423E-02 -0.46936E-03  0.23171E-02
  0.55374E-02  0.76955E-02  0.83158E-02  0.83067E-02  0.83375E-02  0.78592E-02
  0.63616E-02  0.47533E-02  0.43954E-02  0.50692E-02  0.50549E-02  0.34149E-02
  0.12369E-02  0.98366E-04  0.13261E-04 -0.30177E-03 -0.14173E-02 -0.23295E-02
 -0.14184E-01 -0.98707E-02 -0.41327E-02  0.67293E-03  0.32194E-02  0.36595E-02
  0.27052E-02  0.10933E-02 -0.45512E-03 -0.18775E-02 -0.44779E-02 -0.10051E-01
 -0.18986E-01 -0.30031E-01 -0.42271E-01 -0.56317E-01 -0.72517E-01 -0.88407E-01
 -0.99109E-01 -0.10069E+00 -0.92907E-01 -0.78931E-01 -0.63018E-01 -0.48466E-01
 -0.36797E-01 -0.27971E-01 -0.21215E-01 -0.15848E-01 -0.11539E-01 -0.80939E-02
 -0.53828E-02 -0.34306E-02 -0.21578E-02 -0.98930E-03  0.77577E-03  0.30181E-02
  0.47410E-02  0.53095E-02  0.52752E-02  0.54732E-02  0.57477E-02  0.53359E-02
  0.43164E-02  0.37399E-02  0.40954E-02  0.44508E-02  0.36567E-02  0.18912E-02
  0.35646E-03 -0.31625E-03 -0.67708E-03 -0.14198E-02 -0.23124E-02 -0.25063E-02
 -0.11448E-01 -0.67732E-02 -0.18036E-02  0.15730E-02  0.26945E-02  0.20077E-02
  0.28422E-03 -0.16940E-02 -0.33520E-02 -0.49790E-02 -0.79286E-02 -0.13521E-01
 -0.21833E-01 -0.32122E-01 -0.44260E-01 -0.58812E-01 -0.75165E-01 -0.90067E-01
 -0.98756E-01 -0.97924E-01 -0.87879E-01 -0.72296E-01 -0.56011E-01 -0.42480E-01
 -0.32513E-01 -0.24975E-01 -0.18572E-01 -0.12982E-01 -0.85488E-02 -0.54538E-02
 -0.34633E-02 -0.21578E-02 -0.10670E-02  0.19057E-03  0.15267E-02  0.23301E-02
  0.22379E-02  0.18385E-02  0.20839E-02  0.30172E-02  0.36927E-02  0.35268E-02
  0.31101E-02  0.32543E-02  0.37260E-02  0.35537E-02  0.23910E-02  0.93853E-03
 -0.25688E-04 -0.50467E-03 -0.97921E-03 -0.16257E-02 -0.21201E-02 -0.20591E-02
 -0.60921E-02 -0.23191E-02  0.79066E-03  0.23737E-02  0.23570E-02  0.10629E-02
 -0.10614E-02 -0.33378E-02 -0.51551E-02 -0.67696E-02 -0.94424E-02 -0.14333E-01
 -0.21428E-01 -0.29945E-01 -0.39653E-01 -0.51131E-01 -0.64294E-01 -0.76815E-01
 -0.84520E-01 -0.83964E-01 -0.75086E-01 -0.61494E-01 -0.47928E-01 -0.37118E-01
 -0.28843E-01 -0.21649E-01 -0.14960E-01 -0.94061E-02 -0.56384E-02 -0.34706E-02
 -0.21423E-02 -0.98930E-03  0.19057E-03  0.10667E-02  0.10299E-02 -0.75064E-04
 -0.13640E-02 -0.15171E-02 -0.21815E-03  0.14169E-02  0.21890E-02  0.22050E-02
  0.24222E-02  0.31115E-02  0.34907E-02  0.29122E-02  0.17492E-02  0.81529E-03
  0.37122E-03  0.73865E-04 -0.38408E-03 -0.94744E-03 -0.13469E-02 -0.12790E-02
 -0.36607E-04  0.14674E-02  0.23259E-02  0.25950E-02  0.21130E-02  0.58153E-03
 -0.18314E-02 -0.42069E-02 -0.57014E-02 -0.67155E-02 -0.87352E-02 -0.12660E-01
 -0.17619E-01 -0.22044E-01 -0.25979E-01 -0.31667E-01 -0.41121E-01 -0.53012E-01
 -0.62552E-01 -0.65055E-01 -0.59781E-01 -0.50126E-01 -0.40226E-01 -0.31798E-01
 -0.24245E-01 -0.16937E-01 -0.10486E-01 -0.58919E-02 -0.32538E-02 -0.17365E-02
 -0.46936E-03  0.77577E-03  0.15267E-02  0.10299E-02 -0.92697E-03 -0.33218E-02
 -0.43897E-02 -0.32844E-02 -0.10486E-02  0.56405E-03  0.10745E-02  0.14764E-02
  0.25021E-02  0.35134E-02  0.35027E-02  0.25537E-02  0.16513E-02  0.13446E-02
  0.12631E-02  0.88948E-03  0.23114E-03 -0.35890E-03 -0.55723E-03 -0.14083E-03
  0.39011E-02  0.29081E-02  0.22973E-02  0.21665E-02  0.16320E-02 -0.42565E-04
 -0.23862E-02 -0.40551E-02 -0.44143E-02 -0.45010E-02 -0.58499E-02 -0.82639E-02
 -0.94603E-02 -0.77795E-02 -0.52125E-02 -0.67397E-02 -0.15704E-01 -0.29835E-01
 -0.42470E-01 -0.47997E-01 -0.45885E-01 -0.39551E-01 -0.32273E-01 -0.25008E-01
 -0.17612E-01 -0.10678E-01 -0.53988E-02 -0.22123E-02 -0.39621E-03  0.10163E-02
  0.23171E-02  0.30181E-02  0.23301E-02 -0.75067E-04 -0.33218E-02 -0.54954E-02
 -0.51808E-02 -0.29585E-02 -0.81403E-03  0.12445E-03  0.64726E-03  0.19161E-02
  0.35684E-02  0.41908E-02  0.33580E-02  0.22075E-02  0.18427E-02  0.20075E-02
  0.17797E-02  0.96561E-03  0.21180E-03  0.77145E-04  0.58502E-03  0.15181E-02
  0.45548E-02  0.22555E-02  0.14077E-02  0.13649E-02  0.75349E-03 -0.79324E-03
 -0.21879E-02 -0.22081E-02 -0.10872E-02 -0.36956E-03 -0.82676E-03 -0.79637E-03
  0.24536E-02  0.89859E-02  0.14245E-01  0.12085E-01  0.52513E-03 -0.15760E-01
 -0.29129E-01 -0.34992E-01 -0.34032E-01 -0.29381E-01 -0.23101E-01 -0.15802E-01
 -0.83394E-02 -0.23063E-02  0.13029E-02  0.30147E-02  0.40634E-02  0.50410E-02
  0.55374E-02  0.47410E-02  0.22379E-02 -0.13640E-02 -0.43897E-02 -0.51808E-02
 -0.36749E-02 -0.15605E-02 -0.37133E-03  0.22769E-03  0.15815E-02  0.37487E-02
  0.51040E-02  0.45052E-02  0.29018E-02  0.20558E-02  0.22702E-02  0.23333E-02
  0.14987E-02  0.51112E-03  0.44563E-03  0.13443E-02  0.24705E-02  0.33328E-02
  0.31833E-02  0.10467E-02  0.51986E-03  0.38598E-03 -0.28268E-03 -0.10040E-02
 -0.60553E-03  0.12529E-02  0.35339E-02  0.49868E-02  0.59192E-02  0.84176E-02
  0.14010E-01  0.20772E-01  0.23480E-01  0.17787E-01  0.45641E-02 -0.10351E-01
 -0.20904E-01 -0.24940E-01 -0.23797E-01 -0.19214E-01 -0.11975E-01 -0.32148E-02
  0.46334E-02  0.92666E-02  0.10458E-01  0.99020E-02  0.92566E-02  0.87828E-02
  0.76955E-02  0.53095E-02  0.18385E-02 -0.15171E-02 -0.32844E-02 -0.29585E-02
 -0.15605E-02 -0.49768E-03  0.15194E-03  0.15599E-02  0.41143E-02  0.62775E-02
  0.62618E-02  0.43899E-02  0.27608E-02  0.25791E-02  0.28694E-02  0.22581E-02
  0.10854E-02  0.84815E-03  0.20300E-02  0.35409E-02  0.43034E-02  0.44306E-02
  0.16102E-02  0.15193E-03 -0.37133E-03 -0.81404E-03 -0.10486E-02 -0.21816E-03
  0.20839E-02  0.52752E-02  0.83158E-02  0.10667E-01  0.12854E-01  0.15959E-01
  0.20038E-01  0.22920E-01  0.21277E-01  0.13664E-01  0.23669E-02 -0.82280E-02
 -0.14968E-01 -0.17155E-01 -0.14968E-01 -0.82280E-02  0.23669E-02  0.13664E-01
  0.21277E-01  0.22920E-01  0.20038E-01  0.15959E-01  0.12854E-01  0.10667E-01
  0.83158E-02  0.52752E-02  0.20839E-02 -0.21816E-03 -0.10486E-02 -0.81404E-03
 -0.37133E-03  0.15193E-03  0.16102E-02  0.44491E-02  0.73801E-02  0.83001E-02
  0.67132E-02  0.44476E-02  0.34595E-02  0.35754E-02  0.32314E-02  0.20356E-02
  0.14047E-02  0.24303E-02  0.42048E-02  0.50447E-02  0.47022E-02  0.43516E-02
  0.31579E-03 -0.89003E-03 -0.17800E-02 -0.21421E-02 -0.11691E-02  0.14169E-02
  0.50157E-02  0.88533E-02  0.12459E-01  0.15476E-01  0.17612E-01  0.18859E-01
  0.19230E-01  0.18088E-01  0.14378E-01  0.79515E-02  0.26605E-03 -0.65697E-02
 -0.10937E-01 -0.11427E-01 -0.62914E-02  0.51849E-02  0.20253E-01  0.32843E-01
  0.37556E-01  0.33831E-01  0.25858E-01  0.18536E-01  0.13880E-01  0.10974E-01
  0.83067E-02  0.54732E-02  0.30172E-02  0.14169E-02  0.56405E-03  0.12445E-03
  0.22769E-03  0.15599E-02  0.44491E-02  0.78438E-02  0.97190E-02  0.89702E-02
  0.66698E-02  0.48892E-02  0.43612E-02  0.40015E-02  0.28931E-02  0.18556E-02
  0.22756E-02  0.39035E-02  0.49470E-02  0.44542E-02  0.35310E-02  0.36196E-02
 -0.12752E-02 -0.26803E-02 -0.36382E-02 -0.30406E-02 -0.38987E-03  0.34988E-02
  0.75664E-02  0.11532E-01  0.15296E-01  0.18016E-01  0.18687E-01  0.17404E-01
  0.15212E-01  0.12671E-01  0.92976E-02  0.45775E-02 -0.10263E-02 -0.61333E-02
 -0.86969E-02 -0.60064E-02  0.41581E-02  0.20742E-01  0.37882E-01  0.47805E-01
  0.46575E-01  0.37042E-01  0.25875E-01  0.17943E-01  0.13680E-01  0.10986E-01
  0.83375E-02  0.57477E-02  0.36927E-02  0.21890E-02  0.10745E-02  0.64726E-03
  0.15815E-02  0.41143E-02  0.73801E-02  0.97190E-02  0.99153E-02  0.82675E-02
  0.62597E-02  0.50119E-02  0.42715E-02  0.32225E-02  0.20026E-02  0.17034E-02
  0.27111E-02  0.38184E-02  0.36602E-02  0.25918E-02  0.22099E-02  0.30525E-02
 -0.34065E-02 -0.49045E-02 -0.51188E-02 -0.28976E-02  0.11860E-02  0.55088E-02