<UPF version="2.0.1">
  <PP_INFO>

 This pseudopotential file has been produced using the code
 ONCVPSP  (Optimized Norm-Conservinng Vanderbilt PSeudopotential)
 scalar-relativistic version 4.0.1 06/20/2107 by D. R. Hamann
 The code is available through a link at URL www.mat-simresearch.com.
 Documentation with the package provides a full discription of the
 input data below.


 While it is not required under the terms of the GNU GPL, it is
 suggested that you cite D. R. Hamann, Phys. Rev. B 88, 085117 (2013)
 in any publication using these pseudopotentials.

    <PP_INPUTFILE>
# ATOM AND REFERENCE CONFIGURATION
# atsym  z   nc   nv     iexc    psfile
  Ar 18.00    3    2       4      upf
#
#   n    l    f        energy (Ha)
    1    0    2.00
    2    0    2.00
    2    1    6.00
    3    0    2.00
    3    1    6.00
#
# PSEUDOPOTENTIAL AND OPTIMIZATION
# lmax
    1
#
#   l,   rc,      ep,       ncon, nbas, qcut
    0   3.19932  -0.89253    5    8   6.36305
    1   1.74121  -0.37741    5    8   6.77888
#
# LOCAL POTENTIAL
# lloc, lpopt,  rc(5),   dvloc0
    4    5   1.68000      0.00000
#
# VANDERBILT-KLEINMAN-BYLANDER PROJECTORs
# l, nproj, debl
    0    2   0.88095
    1    2   3.82069
#
# MODEL CORE CHARGE
# icmod, fcfact, rcfact
    0   0.00000   0.00000
#
# LOG DERIVATIVE ANALYSIS
# epsh1, epsh2, depsh
   -5.00    3.00    0.02
#
# OUTPUT GRID
# rlmax, drl
    6.00    0.01
#
# TEST CONFIGURATIONS
# ncnf
    0
# nvcnf
#   n    l    f
    </PP_INPUTFILE>
  </PP_INFO>
  <!--                               -->
  <!-- END OF HUMAN READABLE SECTION -->
  <!--                               -->
    <PP_HEADER
       generated="Generated using ONCVPSP code by D. R. Hamann"
       author="anonymous"
       date="220620"
       comment=""
       element="Ar"
       pseudo_type="NC"
       relativistic="scalar"
       is_ultrasoft="F"
       is_paw="F"
       is_coulomb="F"
       has_so="F"
       has_wfc="F"
       has_gipaw="F"
       core_correction="F"
       functional="PBE"
       z_valence="    8.00"
       total_psenergy="  -4.24697073731E+01"
       rho_cutoff="   9.33000000000E+00"
       l_max="1"
       l_local="-1"
       mesh_size="   934"
       number_of_wfc="2"
       number_of_proj="4"/>
 <PP_MESH>
   <PP_R type="real"  size=" 934" columns="8">
    0.0000    0.0100    0.0200    0.0300    0.0400    0.0500    0.0600    0.0700
    0.0800    0.0900    0.1000    0.1100    0.1200    0.1300    0.1400    0.1500
    0.1600    0.1700    0.1800    0.1900    0.2000    0.2100    0.2200    0.2300
    0.2400    0.2500    0.2600    0.2700    0.2800    0.2900    0.3000    0.3100
    0.3200    0.3300    0.3400    0.3500    0.3600    0.3700    0.3800    0.3900
    0.4000    0.4100    0.4200    0.4300    0.4400    0.4500    0.4600    0.4700
    0.4800    0.4900    0.5000    0.5100    0.5200    0.5300    0.5400    0.5500
    0.5600    0.5700    0.5800    0.5900    0.6000    0.6100    0.6200    0.6300
    0.6400    0.6500    0.6600    0.6700    0.6800    0.6900    0.7000    0.7100
    0.7200    0.7300    0.7400    0.7500    0.7600    0.7700    0.7800    0.7900
    0.8000    0.8100    0.8200    0.8300    0.8400    0.8500    0.8600    0.8700
    0.8800    0.8900    0.9000    0.9100    0.9200    0.9300    0.9400    0.9500
    0.9600    0.9700    0.9800    0.9900    1.0000    1.0100    1.0200    1.0300
    1.0400    1.0500    1.0600    1.0700    1.0800    1.0900    1.1000    1.1100
    1.1200    1.1300    1.1400    1.1500    1.1600    1.1700    1.1800    1.1900
    1.2000    1.2100    1.2200    1.2300    1.2400    1.2500    1.2600    1.2700
    1.2800    1.2900    1.3000    1.3100    1.3200    1.3300    1.3400    1.3500
    1.3600    1.3700    1.3800    1.3900    1.4000    1.4100    1.4200    1.4300
    1.4400    1.4500    1.4600    1.4700    1.4800    1.4900    1.5000    1.5100
    1.5200    1.5300    1.5400    1.5500    1.5600    1.5700    1.5800    1.5900
    1.6000    1.6100    1.6200    1.6300    1.6400    1.6500    1.6600    1.6700
    1.6800    1.6900    1.7000    1.7100    1.7200    1.7300    1.7400    1.7500
    1.7600    1.7700    1.7800    1.7900    1.8000    1.8100    1.8200    1.8300
    1.8400    1.8500    1.8600    1.8700    1.8800    1.8900    1.9000    1.9100
    1.9200    1.9300    1.9400    1.9500    1.9600    1.9700    1.9800    1.9900
    2.0000    2.0100    2.0200    2.0300    2.0400    2.0500    2.0600    2.0700
    2.0800    2.0900    2.1000    2.1100    2.1200    2.1300    2.1400    2.1500
    2.1600    2.1700    2.1800    2.1900    2.2000    2.2100    2.2200    2.2300
    2.2400    2.2500    2.2600    2.2700    2.2800    2.2900    2.3000    2.3100
    2.3200    2.3300    2.3400    2.3500    2.3600    2.3700    2.3800    2.3900
    2.4000    2.4100    2.4200    2.4300    2.4400    2.4500    2.4600    2.4700
    2.4800    2.4900    2.5000    2.5100    2.5200    2.5300    2.5400    2.5500
    2.5600    2.5700    2.5800    2.5900    2.6000    2.6100    2.6200    2.6300
    2.6400    2.6500    2.6600    2.6700    2.6800    2.6900    2.7000    2.7100
    2.7200    2.7300    2.7400    2.7500    2.7600    2.7700    2.7800    2.7900
    2.8000    2.8100    2.8200    2.8300    2.8400    2.8500    2.8600    2.8700
    2.8800    2.8900    2.9000    2.9100    2.9200    2.9300    2.9400    2.9500
    2.9600    2.9700    2.9800    2.9900    3.0000    3.0100    3.0200    3.0300
    3.0400    3.0500    3.0600    3.0700    3.0800    3.0900    3.1000    3.1100
    3.1200    3.1300    3.1400    3.1500    3.1600    3.1700    3.1800    3.1900
    3.2000    3.2100    3.2200    3.2300    3.2400    3.2500    3.2600    3.2700
    3.2800    3.2900    3.3000    3.3100    3.3200    3.3300    3.3400    3.3500
    3.3600    3.3700    3.3800    3.3900    3.4000    3.4100    3.4200    3.4300
    3.4400    3.4500    3.4600    3.4700    3.4800    3.4900    3.5000    3.5100
    3.5200    3.5300    3.5400    3.5500    3.5600    3.5700    3.5800    3.5900
    3.6000    3.6100    3.6200    3.6300    3.6400    3.6500    3.6600    3.6700
    3.6800    3.6900    3.7000    3.7100    3.7200    3.7300    3.7400    3.7500
    3.7600    3.7700    3.7800    3.7900    3.8000    3.8100    3.8200    3.8300
    3.8400    3.8500    3.8600    3.8700    3.8800    3.8900    3.9000    3.9100
    3.9200    3.9300    3.9400    3.9500    3.9600    3.9700    3.9800    3.9900
    4.0000    4.0100    4.0200    4.0300    4.0400    4.0500    4.0600    4.0700
    4.0800    4.0900    4.1000    4.1100    4.1200    4.1300    4.1400    4.1500
    4.1600    4.1700    4.1800    4.1900    4.2000    4.2100    4.2200    4.2300
    4.2400    4.2500    4.2600    4.2700    4.2800    4.2900    4.3000    4.3100
    4.3200    4.3300    4.3400    4.3500    4.3600    4.3700    4.3800    4.3900
    4.4000    4.4100    4.4200    4.4300    4.4400    4.4500    4.4600    4.4700
    4.4800    4.4900    4.5000    4.5100    4.5200    4.5300    4.5400    4.5500
    4.5600    4.5700    4.5800    4.5900    4.6000    4.6100    4.6200    4.6300
    4.6400    4.6500    4.6600    4.6700    4.6800    4.6900    4.7000    4.7100
    4.7200    4.7300    4.7400    4.7500    4.7600    4.7700    4.7800    4.7900
    4.8000    4.8100    4.8200    4.8300    4.8400    4.8500    4.8600    4.8700
    4.8800    4.8900    4.9000    4.9100    4.9200    4.9300    4.9400    4.9500
    4.9600    4.9700    4.9800    4.9900    5.0000    5.0100    5.0200    5.0300
    5.0400    5.0500    5.0600    5.0700    5.0800    5.0900    5.1000    5.1100
    5.1200    5.1300    5.1400    5.1500    5.1600    5.1700    5.1800    5.1900
    5.2000    5.2100    5.2200    5.2300    5.2400    5.2500    5.2600    5.2700
    5.2800    5.2900    5.3000    5.3100    5.3200    5.3300    5.3400    5.3500
    5.3600    5.3700    5.3800    5.3900    5.4000    5.4100    5.4200    5.4300
    5.4400    5.4500    5.4600    5.4700    5.4800    5.4900    5.5000    5.5100
    5.5200    5.5300    5.5400    5.5500    5.5600    5.5700    5.5800    5.5900
    5.6000    5.6100    5.6200    5.6300    5.6400    5.6500    5.6600    5.6700
    5.6800    5.6900    5.7000    5.7100    5.7200    5.7300    5.7400    5.7500
    5.7600    5.7700    5.7800    5.7900    5.8000    5.8100    5.8200    5.8300
    5.8400    5.8500    5.8600    5.8700    5.8800    5.8900    5.9000    5.9100
    5.9200    5.9300    5.9400    5.9500    5.9600    5.9700    5.9800    5.9900
    6.0000    6.0100    6.0200    6.0300    6.0400    6.0500    6.0600    6.0700
    6.0800    6.0900    6.1000    6.1100    6.1200    6.1300    6.1400    6.1500
    6.1600    6.1700    6.1800    6.1900    6.2000    6.2100    6.2200    6.2300
    6.2400    6.2500    6.2600    6.2700    6.2800    6.2900    6.3000    6.3100
    6.3200    6.3300    6.3400    6.3500    6.3600    6.3700    6.3800    6.3900
    6.4000    6.4100    6.4200    6.4300    6.4400    6.4500    6.4600    6.4700
    6.4800    6.4900    6.5000    6.5100    6.5200    6.5300    6.5400    6.5500
    6.5600    6.5700    6.5800    6.5900    6.6000    6.6100    6.6200    6.6300
    6.6400    6.6500    6.6600    6.6700    6.6800    6.6900    6.7000    6.7100
    6.7200    6.7300    6.7400    6.7500    6.7600    6.7700    6.7800    6.7900
    6.8000    6.8100    6.8200    6.8300    6.8400    6.8500    6.8600    6.8700
    6.8800    6.8900    6.9000    6.9100    6.9200    6.9300    6.9400    6.9500
    6.9600    6.9700    6.9800    6.9900    7.0000    7.0100    7.0200    7.0300
    7.0400    7.0500    7.0600    7.0700    7.0800    7.0900    7.1000    7.1100
    7.1200    7.1300    7.1400    7.1500    7.1600    7.1700    7.1800    7.1900
    7.2000    7.2100    7.2200    7.2300    7.2400    7.2500    7.2600    7.2700
    7.2800    7.2900    7.3000    7.3100    7.3200    7.3300    7.3400    7.3500
    7.3600    7.3700    7.3800    7.3900    7.4000    7.4100    7.4200    7.4300
    7.4400    7.4500    7.4600    7.4700    7.4800    7.4900    7.5000    7.5100
    7.5200    7.5300    7.5400    7.5500    7.5600    7.5700    7.5800    7.5900
    7.6000    7.6100    7.6200    7.6300    7.6400    7.6500    7.6600    7.6700
    7.6800    7.6900    7.7000    7.7100    7.7200    7.7300    7.7400    7.7500
    7.7600    7.7700    7.7800    7.7900    7.8000    7.8100    7.8200    7.8300
    7.8400    7.8500    7.8600    7.8700    7.8800    7.8900    7.9000    7.9100
    7.9200    7.9300    7.9400    7.9500    7.9600    7.9700    7.9800    7.9900
    8.0000    8.0100    8.0200    8.0300    8.0400    8.0500    8.0600    8.0700
    8.0800    8.0900    8.1000    8.1100    8.1200    8.1300    8.1400    8.1500
    8.1600    8.1700    8.1800    8.1900    8.2000    8.2100    8.2200    8.2300
    8.2400    8.2500    8.2600    8.2700    8.2800    8.2900    8.3000    8.3100
    8.3200    8.3300    8.3400    8.3500    8.3600    8.3700    8.3800    8.3900
    8.4000    8.4100    8.4200    8.4300    8.4400    8.4500    8.4600    8.4700
    8.4800    8.4900    8.5000    8.5100    8.5200    8.5300    8.5400    8.5500
    8.5600    8.5700    8.5800    8.5900    8.6000    8.6100    8.6200    8.6300
    8.6400    8.6500    8.6600    8.6700    8.6800    8.6900    8.7000    8.7100
    8.7200    8.7300    8.7400    8.7500    8.7600    8.7700    8.7800    8.7900
    8.8000    8.8100    8.8200    8.8300    8.8400    8.8500    8.8600    8.8700
    8.8800    8.8900    8.9000    8.9100    8.9200    8.9300    8.9400    8.9500
    8.9600    8.9700    8.9800    8.9900    9.0000    9.0100    9.0200    9.0300
    9.0400    9.0500    9.0600    9.0700    9.0800    9.0900    9.1000    9.1100
    9.1200    9.1300    9.1400    9.1500    9.1600    9.1700    9.1800    9.1900
    9.2000    9.2100    9.2200    9.2300    9.2400    9.2500    9.2600    9.2700
    9.2800    9.2900    9.3000    9.3100    9.3200    9.3300
   </PP_R>
   <PP_RAB type="real"  size=" 934" columns="8">
    0.0100    0.0100    0.0100    0.0100    0.0100    0.0100    0.0100    0.0100
    0.0100    0.0100    0.0100    0.0100    0.0100    0.0100    0.0100    0.0100
    0.0100    0.0100    0.0100    0.0100    0.0100    0.0100    0.0100    0.0100
    0.0100    0.0100    0.0100    0.0100    0.0100    0.0100    0.0100    0.0100
    0.0100    0.0100    0.0100    0.0100    0.0100    0.0100    0.0100    0.0100
    0.0100    0.0100    0.0100    0.0100    0.0100    0.0100    0.0100    0.0100
    0.0100    0.0100    0.0100    0.0100    0.0100    0.0100    0.0100    0.0100
    0.0100    0.0100    0.0100    0.0100    0.0100    0.0100    0.0100    0.0100
    0.0100    0.0100    0.0100    0.0100    0.0100    0.0100    0.0100    0.0100
    0.0100    0.0100    0.0100    0.0100    0.0100    0.0100    0.0100    0.0100
    0.0100    0.0100    0.0100    0.0100    0.0100    0.0100    0.0100    0.0100
    0.0100    0.0100    0.0100    0.0100    0.0100    0.0100    0.0100    0.0100
    0.0100    0.0100    0.0100    0.0100    0.0100    0.0100    0.0100    0.0100
    0.0100    0.0100    0.0100    0.0100    0.0100    0.0100    0.0100    0.0100
    0.0100    0.0100    0.0100    0.0100    0.0100    0.0100    0.0100    0.0100
    0.0100    0.0100    0.0100    0.0100    0.0100    0.0100    0.0100    0.0100
    0.0100    0.0100    0.0100    0.0100    0.0100    0.0100    0.0100    0.0100
    0.0100    0.0100    0.0100    0.0100    0.0100    0.0100    0.0100    0.0100
    0.0100    0.0100    0.0100    0.0100    0.0100    0.0100    0.0100    0.0100
    0.0100    0.0100    0.0100    0.0100    0.0100    0.0100    0.0100    0.0100
    0.0100    0.0100    0.0100    0.0100    0.0100    0.0100    0.0100    0.0100
    0.0100    0.0100    0.0100    0.0100    0.0100    0.0100    0.0100    0.0100
    0.0100    0.0100    0.0100    0.0100    0.0100    0.0100    0.0100    0.0100
    0.0100    0.0100    0.0100    0.0100    0.0100    0.0100    0.0100    0.0100
    0.0100    0.0100    0.0100    0.0100    0.0100    0.0100    0.0100    0.0100
    0.0100    0.0100    0.0100    0.0100    0.0100    0.0100    0.0100    0.0100
    0.0100    0.0100    0.0100    0.0100    0.0100    0.0100    0.0100    0.0100
    0.0100    0.0100    0.0100    0.0100    0.0100    0.0100    0.0100    0.0100
    0.0100    0.0100    0.0100    0.0100    0.0100    0.0100    0.0100    0.0100
    0.0100    0.0100    0.0100    0.0100    0.0100    0.0100    0.0100    0.0100
    0.0100    0.0100    0.0100    0.0100    0.0100    0.0100    0.0100    0.0100
    0.0100    0.0100    0.0100    0.0100    0.0100    0.0100    0.0100    0.0100
    0.0100    0.0100    0.0100    0.0100    0.0100    0.0100    0.0100    0.0100
    0.0100    0.0100    0.0100    0.0100    0.0100    0.0100    0.0100    0.0100
    0.0100    0.0100    0.0100    0.0100    0.0100    0.0100    0.0100    0.0100
    0.0100    0.0100    0.0100    0.0100    0.0100    0.0100    0.0100    0.0100
    0.0100    0.0100    0.0100    0.0100    0.0100    0.0100    0.0100    0.0100
    0.0100    0.0100    0.0100    0.0100    0.0100    0.0100    0.0100    0.0100
    0.0100    0.0100    0.0100    0.0100    0.0100    0.0100    0.0100    0.0100
    0.0100    0.0100    0.0100    0.0100    0.0100    0.0100    0.0100    0.0100
    0.0100    0.0100    0.0100    0.0100    0.0100    0.0100    0.0100    0.0100
    0.0100    0.0100    0.0100    0.0100    0.0100    0.0100    0.0100    0.0100
    0.0100    0.0100    0.0100    0.0100    0.0100    0.0100    0.0100    0.0100
    0.0100    0.0100    0.0100    0.0100    0.0100    0.0100    0.0100    0.0100
    0.0100    0.0100    0.0100    0.0100    0.0100    0.0100    0.0100    0.0100
    0.0100    0.0100    0.0100    0.0100    0.0100    0.0100    0.0100    0.0100
    0.0100    0.0100    0.0100    0.0100    0.0100    0.0100    0.0100    0.0100
    0.0100    0.0100    0.0100    0.0100    0.0100    0.0100    0.0100    0.0100
    0.0100    0.0100    0.0100    0.0100    0.0100    0.0100    0.0100    0.0100
    0.0100    0.0100    0.0100    0.0100    0.0100    0.0100    0.0100    0.0100
    0.0100    0.0100    0.0100    0.0100    0.0100    0.0100    0.0100    0.0100
    0.0100    0.0100    0.0100    0.0100    0.0100    0.0100    0.0100    0.0100
    0.0100    0.0100    0.0100    0.0100    0.0100    0.0100    0.0100    0.0100
    0.0100    0.0100    0.0100    0.0100    0.0100    0.0100    0.0100    0.0100
    0.0100    0.0100    0.0100    0.0100    0.0100    0.0100    0.0100    0.0100
    0.0100    0.0100    0.0100    0.0100    0.0100    0.0100    0.0100    0.0100
    0.0100    0.0100    0.0100    0.0100    0.0100    0.0100    0.0100    0.0100
    0.0100    0.0100    0.0100    0.0100    0.0100    0.0100    0.0100    0.0100
    0.0100    0.0100    0.0100    0.0100    0.0100    0.0100    0.0100    0.0100
    0.0100    0.0100    0.0100    0.0100    0.0100    0.0100    0.0100    0.0100
    0.0100    0.0100    0.0100    0.0100    0.0100    0.0100    0.0100    0.0100
    0.0100    0.0100    0.0100    0.0100    0.0100    0.0100    0.0100    0.0100
    0.0100    0.0100    0.0100    0.0100    0.0100    0.0100    0.0100    0.0100
    0.0100    0.0100    0.0100    0.0100    0.0100    0.0100    0.0100    0.0100
    0.0100    0.0100    0.0100    0.0100    0.0100    0.0100    0.0100    0.0100
    0.0100    0.0100    0.0100    0.0100    0.0100    0.0100    0.0100    0.0100
    0.0100    0.0100    0.0100    0.0100    0.0100    0.0100    0.0100    0.0100
    0.0100    0.0100    0.0100    0.0100    0.0100    0.0100    0.0100    0.0100
    0.0100    0.0100    0.0100    0.0100    0.0100    0.0100    0.0100    0.0100
    0.0100    0.0100    0.0100    0.0100    0.0100    0.0100    0.0100    0.0100
    0.0100    0.0100    0.0100    0.0100    0.0100    0.0100    0.0100    0.0100
    0.0100    0.0100    0.0100    0.0100    0.0100    0.0100    0.0100    0.0100
    0.0100    0.0100    0.0100    0.0100    0.0100    0.0100    0.0100    0.0100
    0.0100    0.0100    0.0100    0.0100    0.0100    0.0100    0.0100    0.0100
    0.0100    0.0100    0.0100    0.0100    0.0100    0.0100    0.0100    0.0100
    0.0100    0.0100    0.0100    0.0100    0.0100    0.0100    0.0100    0.0100
    0.0100    0.0100    0.0100    0.0100    0.0100    0.0100    0.0100    0.0100
    0.0100    0.0100    0.0100    0.0100    0.0100    0.0100    0.0100    0.0100
    0.0100    0.0100    0.0100    0.0100    0.0100    0.0100    0.0100    0.0100
    0.0100    0.0100    0.0100    0.0100    0.0100    0.0100    0.0100    0.0100
    0.0100    0.0100    0.0100    0.0100    0.0100    0.0100    0.0100    0.0100
    0.0100    0.0100    0.0100    0.0100    0.0100    0.0100    0.0100    0.0100
    0.0100    0.0100    0.0100    0.0100    0.0100    0.0100    0.0100    0.0100
    0.0100    0.0100    0.0100    0.0100    0.0100    0.0100    0.0100    0.0100
    0.0100    0.0100    0.0100    0.0100    0.0100    0.0100    0.0100    0.0100
    0.0100    0.0100    0.0100    0.0100    0.0100    0.0100    0.0100    0.0100
    0.0100    0.0100    0.0100    0.0100    0.0100    0.0100    0.0100    0.0100
    0.0100    0.0100    0.0100    0.0100    0.0100    0.0100    0.0100    0.0100
    0.0100    0.0100    0.0100    0.0100    0.0100    0.0100    0.0100    0.0100
    0.0100    0.0100    0.0100    0.0100    0.0100    0.0100    0.0100    0.0100
    0.0100    0.0100    0.0100    0.0100    0.0100    0.0100    0.0100    0.0100
    0.0100    0.0100    0.0100    0.0100    0.0100    0.0100    0.0100    0.0100
    0.0100    0.0100    0.0100    0.0100    0.0100    0.0100    0.0100    0.0100
    0.0100    0.0100    0.0100    0.0100    0.0100    0.0100    0.0100    0.0100
    0.0100    0.0100    0.0100    0.0100    0.0100    0.0100    0.0100    0.0100
    0.0100    0.0100    0.0100    0.0100    0.0100    0.0100    0.0100    0.0100
    0.0100    0.0100    0.0100    0.0100    0.0100    0.0100    0.0100    0.0100
    0.0100    0.0100    0.0100    0.0100    0.0100    0.0100    0.0100    0.0100
    0.0100    0.0100    0.0100    0.0100    0.0100    0.0100    0.0100    0.0100
    0.0100    0.0100    0.0100    0.0100    0.0100    0.0100    0.0100    0.0100
    0.0100    0.0100    0.0100    0.0100    0.0100    0.0100    0.0100    0.0100
    0.0100    0.0100    0.0100    0.0100    0.0100    0.0100    0.0100    0.0100
    0.0100    0.0100    0.0100    0.0100    0.0100    0.0100    0.0100    0.0100
    0.0100    0.0100    0.0100    0.0100    0.0100    0.0100    0.0100    0.0100
    0.0100    0.0100    0.0100    0.0100    0.0100    0.0100    0.0100    0.0100
    0.0100    0.0100    0.0100    0.0100    0.0100    0.0100    0.0100    0.0100
    0.0100    0.0100    0.0100    0.0100    0.0100    0.0100    0.0100    0.0100
    0.0100    0.0100    0.0100    0.0100    0.0100    0.0100    0.0100    0.0100
    0.0100    0.0100    0.0100    0.0100    0.0100    0.0100    0.0100    0.0100
    0.0100    0.0100    0.0100    0.0100    0.0100    0.0100    0.0100    0.0100
    0.0100    0.0100    0.0100    0.0100    0.0100    0.0100    0.0100    0.0100
    0.0100    0.0100    0.0100    0.0100    0.0100    0.0100    0.0100    0.0100
    0.0100    0.0100    0.0100    0.0100    0.0100    0.0100    0.0100    0.0100
    0.0100    0.0100    0.0100    0.0100    0.0100    0.0100    0.0100    0.0100
    0.0100    0.0100    0.0100    0.0100    0.0100    0.0100    0.0100    0.0100
    0.0100    0.0100    0.0100    0.0100    0.0100    0.0100    0.0100    0.0100
    0.0100    0.0100    0.0100    0.0100    0.0100    0.0100
   </PP_RAB>
 </PP_MESH>
  <PP_LOCAL type="real"  size=" 934" columns="4">
   -2.1124018053E+01   -2.1124691796E+01   -2.1126624974E+01   -2.1129566596E+01
   -2.1133126364E+01   -2.1136813097E+01   -2.1140079152E+01   -2.1142365029E+01
   -2.1143138822E+01   -2.1141926903E+01   -2.1138334214E+01   -2.1132054309E+01
   -2.1122870573E+01   -2.1110650709E+01   -2.1095336802E+01   -2.1076933027E+01
   -2.1055492691E+01   -2.1031105816E+01   -2.1003888025E+01   -2.0973971115E+01
   -2.0941495433E+01   -2.0906603993E+01   -2.0869438125E+01   -2.0830134449E+01
   -2.0788822909E+01   -2.0745625632E+01   -2.0700656414E+01   -2.0654020646E+01
   -2.0605815538E+01   -2.0556130532E+01   -2.0505047816E+01   -2.0452642887E+01
   -2.0398985097E+01   -2.0344138184E+01   -2.0288160750E+01   -2.0231106679E+01
   -2.0173025508E+01   -2.0113962732E+01   -2.0053960069E+01   -1.9993055666E+01
   -1.9931284285E+01   -1.9868677444E+01   -1.9805263546E+01   -1.9741067984E+01
   -1.9676113246E+01   -1.9610419007E+01   -1.9544002234E+01   -1.9476877286E+01
   -1.9409056028E+01   -1.9340547962E+01   -1.9271360360E+01   -1.9201498425E+01
   -1.9130965457E+01   -1.9059763040E+01   -1.8987891239E+01   -1.8915348808E+01
   -1.8842133417E+01   -1.8768241868E+01   -1.8693670335E+01   -1.8618414591E+01
   -1.8542470236E+01   -1.8465832922E+01   -1.8388498561E+01   -1.8310463530E+01
   -1.8231724853E+01   -1.8152280369E+01   -1.8072128878E+01   -1.7991270271E+01
   -1.7909705633E+01   -1.7827437329E+01   -1.7744469066E+01   -1.7660805933E+01
   -1.7576454433E+01   -1.7491422482E+01   -1.7405719402E+01   -1.7319355904E+01
   -1.7232344051E+01   -1.7144697222E+01   -1.7056430063E+01   -1.6967558435E+01
   -1.6878099365E+01   -1.6788070991E+01   -1.6697492509E+01   -1.6606384123E+01
   -1.6514766999E+01   -1.6422663216E+01   -1.6330095731E+01   -1.6237088333E+01
   -1.6143665616E+01   -1.6049852939E+01   -1.5955676398E+01   -1.5861162795E+01
   -1.5766339604E+01   -1.5671234941E+01   -1.5575877531E+01   -1.5480296663E+01
   -1.5384522157E+01   -1.5288584310E+01   -1.5192513848E+01   -1.5096341870E+01
   -1.5000099779E+01   -1.4903819222E+01   -1.4807532007E+01   -1.4711270032E+01
   -1.4615065199E+01   -1.4518949324E+01   -1.4422954055E+01   -1.4327110777E+01
   -1.4231450525E+01   -1.4136003890E+01   -1.4040800938E+01   -1.3945871123E+01
   -1.3851243207E+01   -1.3756945189E+01   -1.3663004238E+01   -1.3569446630E+01
   -1.3476297698E+01   -1.3383581788E+01   -1.3291322224E+01   -1.3199541281E+01
   -1.3108260167E+01   -1.3017499014E+01   -1.2927276876E+01   -1.2837611737E+01
   -1.2748520524E+01   -1.2660019127E+01   -1.2572122426E+01   -1.2484844324E+01
   -1.2398197780E+01   -1.2312194853E+01   -1.2226846741E+01   -1.2142163829E+01
   -1.2058155732E+01   -1.1974831346E+01   -1.1892198893E+01   -1.1810265966E+01
   -1.1729039575E+01   -1.1648526192E+01   -1.1568731789E+01   -1.1489661878E+01
   -1.1411321545E+01   -1.1333715482E+01   -1.1256848012E+01   -1.1180723116E+01
   -1.1105344449E+01   -1.1030715356E+01   -1.0956838881E+01   -1.0883717773E+01
   -1.0811354484E+01   -1.0739751168E+01   -1.0668909669E+01   -1.0598831509E+01
   -1.0529517865E+01   -1.0460969553E+01   -1.0393186993E+01   -1.0326170183E+01
   -1.0259918659E+01   -1.0194431461E+01   -1.0129707083E+01   -1.0065743434E+01
   -1.0002537787E+01   -9.9400867276E+00   -9.8783861041E+00   -9.8174309723E+00
   -9.7572155425E+00   -9.6977331248E+00   -9.6389760736E+00   -9.5809357293E+00
   -9.5236023796E+00   -9.4669652026E+00   -9.4110125231E+00   -9.3557324403E+00
   -9.3011131106E+00   -9.2471426912E+00   -9.1938093183E+00   -9.1411011355E+00
   -9.0890065787E+00   -9.0375147227E+00   -8.9866150894E+00   -8.9362972920E+00
   -8.8865512020E+00   -8.8373669105E+00   -8.7887347181E+00   -8.7406451327E+00
   -8.6930888644E+00   -8.6460568208E+00   -8.5995401028E+00   -8.5535299998E+00
   -8.5080179864E+00   -8.4629957173E+00   -8.4184550243E+00   -8.3743879121E+00
   -8.3307865543E+00   -8.2876432904E+00   -8.2449506220E+00   -8.2027012094E+00
   -8.1608878682E+00   -8.1195035662E+00   -8.0785414202E+00   -8.0379946928E+00
   -7.9978567892E+00   -7.9581212553E+00   -7.9187817732E+00   -7.8798321590E+00
   -7.8412663606E+00   -7.8030784541E+00   -7.7652626416E+00   -7.7278132482E+00
   -7.6907247198E+00   -7.6539916198E+00   -7.6176086273E+00   -7.5815705342E+00
   -7.5458722428E+00   -7.5105087633E+00   -7.4754752114E+00   -7.4407668059E+00
   -7.4063788664E+00   -7.3723068109E+00   -7.3385461536E+00   -7.3050925023E+00
   -7.2719415567E+00   -7.2390891057E+00   -7.2065310253E+00   -7.1742632766E+00
   -7.1422819037E+00   -7.1105830312E+00   -7.0791628625E+00   -7.0480176777E+00
   -7.0171438315E+00   -6.9865377510E+00   -6.9561959344E+00   -6.9261149482E+00
   -6.8962914262E+00   -6.8667220668E+00   -6.8374036319E+00   -6.8083329449E+00
   -6.7795068885E+00   -6.7509224037E+00   -6.7225764878E+00   -6.6944661927E+00
   -6.6665886235E+00   -6.6389409368E+00   -6.6115203394E+00   -6.5843240867E+00
   -6.5573494811E+00   -6.5305938713E+00   -6.5040546500E+00   -6.4777292536E+00
   -6.4516151601E+00   -6.4257098887E+00   -6.4000109980E+00   -6.3745160852E+00
   -6.3492227850E+00   -6.3241287686E+00   -6.2992317427E+00   -6.2745294485E+00
   -6.2500196610E+00   -6.2257001877E+00   -6.2015688684E+00   -6.1776235740E+00
   -6.1538622058E+00   -6.1302826950E+00   -6.1068830018E+00   -6.0836611149E+00
   -6.0606150508E+00   -6.0377428536E+00   -6.0150425937E+00   -5.9925123681E+00
   -5.9701502993E+00   -5.9479545353E+00   -5.9259232490E+00   -5.9040546376E+00
   -5.8823469224E+00   -5.8607983486E+00   -5.8394071844E+00   -5.8181717213E+00
   -5.7970902734E+00   -5.7761611773E+00   -5.7553827915E+00   -5.7347534966E+00
   -5.7142716944E+00   -5.6939358083E+00   -5.6737442827E+00   -5.6536955827E+00
   -5.6337881939E+00   -5.6140206225E+00   -5.5943913944E+00   -5.5748990558E+00
   -5.5555421722E+00   -5.5363193288E+00   -5.5172291296E+00   -5.4982701980E+00
   -5.4794411759E+00   -5.4607407238E+00   -5.4421675205E+00   -5.4237202628E+00
   -5.4053976656E+00   -5.3871984611E+00   -5.3691213991E+00   -5.3511652466E+00
   -5.3333287874E+00   -5.3156108220E+00   -5.2980101675E+00   -5.2805256572E+00
   -5.2631561402E+00   -5.2459004816E+00   -5.2287575615E+00   -5.2117262753E+00
   -5.1948055336E+00   -5.1779942616E+00   -5.1612914001E+00   -5.1446959041E+00
   -5.1282067423E+00   -5.1118228972E+00   -5.0955433650E+00   -5.0793671555E+00
   -5.0632932914E+00   -5.0473208083E+00   -5.0314487546E+00   -5.0156761912E+00
   -5.0000021912E+00   -4.9844258394E+00   -4.9689462318E+00   -4.9535624734E+00
   -4.9382736781E+00   -4.9230789688E+00   -4.9079774784E+00   -4.8929683513E+00
   -4.8780507436E+00   -4.8632238210E+00   -4.8484867588E+00   -4.8338387426E+00
   -4.8192789677E+00   -4.8048066392E+00   -4.7904209717E+00   -4.7761211890E+00
   -4.7619065244E+00   -4.7477762201E+00   -4.7337295273E+00   -4.7197657062E+00
   -4.7058840254E+00   -4.6920837625E+00   -4.6783642030E+00   -4.6647246413E+00
   -4.6511643797E+00   -4.6376827285E+00   -4.6242790062E+00   -4.6109525391E+00
   -4.5977026611E+00   -4.5845287140E+00   -4.5714300467E+00   -4.5584060160E+00
   -4.5454559858E+00   -4.5325793271E+00   -4.5197754181E+00   -4.5070436440E+00
   -4.4943833970E+00   -4.4817940761E+00   -4.4692750867E+00   -4.4568258413E+00
   -4.4444457586E+00   -4.4321342638E+00   -4.4198907886E+00   -4.4077147707E+00
   -4.3956056543E+00   -4.3835628894E+00   -4.3715859322E+00   -4.3596742448E+00
   -4.3478272950E+00   -4.3360445565E+00   -4.3243255087E+00   -4.3126696366E+00
   -4.3010764306E+00   -4.2895453868E+00   -4.2780760066E+00   -4.2666677965E+00
   -4.2553202687E+00   -4.2440329401E+00   -4.2328053330E+00   -4.2216369747E+00
   -4.2105273974E+00   -4.1994761383E+00   -4.1884827393E+00   -4.1775467473E+00
   -4.1666677137E+00   -4.1558451948E+00   -4.1450787513E+00   -4.1343679485E+00
   -4.1237123561E+00   -4.1131115485E+00   -4.1025651041E+00   -4.0920726059E+00
   -4.0816336410E+00   -4.0712478007E+00   -4.0609146805E+00   -4.0506338801E+00
   -4.0404050031E+00   -4.0302276571E+00   -4.0201014536E+00   -4.0100260082E+00
   -4.0000009402E+00   -3.9900258726E+00   -3.9801004323E+00   -3.9702242499E+00
   -3.9603969596E+00   -3.9506181993E+00   -3.9408876103E+00   -3.9312048375E+00
   -3.9215695295E+00   -3.9119813380E+00   -3.9024399182E+00   -3.8929449288E+00
   -3.8834960317E+00   -3.8740928920E+00   -3.8647351782E+00   -3.8554225619E+00
   -3.8461547179E+00   -3.8369313241E+00   -3.8277520614E+00   -3.8186166139E+00
   -3.8095246686E+00   -3.8004759156E+00   -3.7914700476E+00   -3.7825067607E+00