<UPF version="2.0.1">
  <PP_INFO>

 This pseudopotential file has been produced using the code
 ONCVPSP  (Optimized Norm-Conservinng Vanderbilt PSeudopotential)
 scalar-relativistic version 4.0.1 06/20/2107 by D. R. Hamann
 The code is available through a link at URL www.mat-simresearch.com.
 Documentation with the package provides a full discription of the
 input data below.


 While it is not required under the terms of the GNU GPL, it is
 suggested that you cite D. R. Hamann, Phys. Rev. B 88, 085117 (2013)
 in any publication using these pseudopotentials.

    <PP_INPUTFILE>
# ATOM AND REFERENCE CONFIGURATION
# atsym  z   nc   nv     iexc    psfile
  Ne 10.00    1    2       4      upf
#
#   n    l    f        energy (Ha)
    1    0    2.00
    2    0    2.00
    2    1    6.00
#
# PSEUDOPOTENTIAL AND OPTIMIZATION
# lmax
    1
#
#   l,   rc,      ep,       ncon, nbas, qcut
    0   2.62070  -1.33786    5    8   7.96858
    1   2.65215  -0.49002    5    8   6.60628
#
# LOCAL POTENTIAL
# lloc, lpopt,  rc(5),   dvloc0
    4    5   2.62070      0.00000
#
# VANDERBILT-KLEINMAN-BYLANDER PROJECTORs
# l, nproj, debl
    0    2   1.54861
    1    2   1.11000
#
# MODEL CORE CHARGE
# icmod, fcfact, rcfact
    0   0.00000   0.00000
#
# LOG DERIVATIVE ANALYSIS
# epsh1, epsh2, depsh
   -5.00    3.00    0.02
#
# OUTPUT GRID
# rlmax, drl
    6.00    0.01
#
# TEST CONFIGURATIONS
# ncnf
    0
# nvcnf
#   n    l    f
    </PP_INPUTFILE>
  </PP_INFO>
  <!--                               -->
  <!-- END OF HUMAN READABLE SECTION -->
  <!--                               -->
    <PP_HEADER
       generated="Generated using ONCVPSP code by D. R. Hamann"
       author="anonymous"
       date="220620"
       comment=""
       element="Ne"
       pseudo_type="NC"
       relativistic="scalar"
       is_ultrasoft="F"
       is_paw="F"
       is_coulomb="F"
       has_so="F"
       has_wfc="F"
       has_gipaw="F"
       core_correction="F"
       functional="PBE"
       z_valence="    8.00"
       total_psenergy="  -6.17486344148E+01"
       rho_cutoff="   7.53000000000E+00"
       l_max="1"
       l_local="-1"
       mesh_size="   754"
       number_of_wfc="2"
       number_of_proj="4"/>
 <PP_MESH>
   <PP_R type="real"  size=" 754" columns="8">
    0.0000    0.0100    0.0200    0.0300    0.0400    0.0500    0.0600    0.0700
    0.0800    0.0900    0.1000    0.1100    0.1200    0.1300    0.1400    0.1500
    0.1600    0.1700    0.1800    0.1900    0.2000    0.2100    0.2200    0.2300
    0.2400    0.2500    0.2600    0.2700    0.2800    0.2900    0.3000    0.3100
    0.3200    0.3300    0.3400    0.3500    0.3600    0.3700    0.3800    0.3900
    0.4000    0.4100    0.4200    0.4300    0.4400    0.4500    0.4600    0.4700
    0.4800    0.4900    0.5000    0.5100    0.5200    0.5300    0.5400    0.5500
    0.5600    0.5700    0.5800    0.5900    0.6000    0.6100    0.6200    0.6300
    0.6400    0.6500    0.6600    0.6700    0.6800    0.6900    0.7000    0.7100
    0.7200    0.7300    0.7400    0.7500    0.7600    0.7700    0.7800    0.7900
    0.8000    0.8100    0.8200    0.8300    0.8400    0.8500    0.8600    0.8700
    0.8800    0.8900    0.9000    0.9100    0.9200    0.9300    0.9400    0.9500
    0.9600    0.9700    0.9800    0.9900    1.0000    1.0100    1.0200    1.0300
    1.0400    1.0500    1.0600    1.0700    1.0800    1.0900    1.1000    1.1100
    1.1200    1.1300    1.1400    1.1500    1.1600    1.1700    1.1800    1.1900
    1.2000    1.2100    1.2200    1.2300    1.2400    1.2500    1.2600    1.2700
    1.2800    1.2900    1.3000    1.3100    1.3200    1.3300    1.3400    1.3500
    1.3600    1.3700    1.3800    1.3900    1.4000    1.4100    1.4200    1.4300
    1.4400    1.4500    1.4600    1.4700    1.4800    1.4900    1.5000    1.5100
    1.5200    1.5300    1.5400    1.5500    1.5600    1.5700    1.5800    1.5900
    1.6000    1.6100    1.6200    1.6300    1.6400    1.6500    1.6600    1.6700
    1.6800    1.6900    1.7000    1.7100    1.7200    1.7300    1.7400    1.7500
    1.7600    1.7700    1.7800    1.7900    1.8000    1.8100    1.8200    1.8300
    1.8400    1.8500    1.8600    1.8700    1.8800    1.8900    1.9000    1.9100
    1.9200    1.9300    1.9400    1.9500    1.9600    1.9700    1.9800    1.9900
    2.0000    2.0100    2.0200    2.0300    2.0400    2.0500    2.0600    2.0700
    2.0800    2.0900    2.1000    2.1100    2.1200    2.1300    2.1400    2.1500
    2.1600    2.1700    2.1800    2.1900    2.2000    2.2100    2.2200    2.2300
    2.2400    2.2500    2.2600    2.2700    2.2800    2.2900    2.3000    2.3100
    2.3200    2.3300    2.3400    2.3500    2.3600    2.3700    2.3800    2.3900
    2.4000    2.4100    2.4200    2.4300    2.4400    2.4500    2.4600    2.4700
    2.4800    2.4900    2.5000    2.5100    2.5200    2.5300    2.5400    2.5500
    2.5600    2.5700    2.5800    2.5900    2.6000    2.6100    2.6200    2.6300
    2.6400    2.6500    2.6600    2.6700    2.6800    2.6900    2.7000    2.7100
    2.7200    2.7300    2.7400    2.7500    2.7600    2.7700    2.7800    2.7900
    2.8000    2.8100    2.8200    2.8300    2.8400    2.8500    2.8600    2.8700
    2.8800    2.8900    2.9000    2.9100    2.9200    2.9300    2.9400    2.9500
    2.9600    2.9700    2.9800    2.9900    3.0000    3.0100    3.0200    3.0300
    3.0400    3.0500    3.0600    3.0700    3.0800    3.0900    3.1000    3.1100
    3.1200    3.1300    3.1400    3.1500    3.1600    3.1700    3.1800    3.1900
    3.2000    3.2100    3.2200    3.2300    3.2400    3.2500    3.2600    3.2700
    3.2800    3.2900    3.3000    3.3100    3.3200    3.3300    3.3400    3.3500
    3.3600    3.3700    3.3800    3.3900    3.4000    3.4100    3.4200    3.4300
    3.4400    3.4500    3.4600    3.4700    3.4800    3.4900    3.5000    3.5100
    3.5200    3.5300    3.5400    3.5500    3.5600    3.5700    3.5800    3.5900
    3.6000    3.6100    3.6200    3.6300    3.6400    3.6500    3.6600    3.6700
    3.6800    3.6900    3.7000    3.7100    3.7200    3.7300    3.7400    3.7500
    3.7600    3.7700    3.7800    3.7900    3.8000    3.8100    3.8200    3.8300
    3.8400    3.8500    3.8600    3.8700    3.8800    3.8900    3.9000    3.9100
    3.9200    3.9300    3.9400    3.9500    3.9600    3.9700    3.9800    3.9900
    4.0000    4.0100    4.0200    4.0300    4.0400    4.0500    4.0600    4.0700
    4.0800    4.0900    4.1000    4.1100    4.1200    4.1300    4.1400    4.1500
    4.1600    4.1700    4.1800    4.1900    4.2000    4.2100    4.2200    4.2300
    4.2400    4.2500    4.2600    4.2700    4.2800    4.2900    4.3000    4.3100
    4.3200    4.3300    4.3400    4.3500    4.3600    4.3700    4.3800    4.3900
    4.4000    4.4100    4.4200    4.4300    4.4400    4.4500    4.4600    4.4700
    4.4800    4.4900    4.5000    4.5100    4.5200    4.5300    4.5400    4.5500
    4.5600    4.5700    4.5800    4.5900    4.6000    4.6100    4.6200    4.6300
    4.6400    4.6500    4.6600    4.6700    4.6800    4.6900    4.7000    4.7100
    4.7200    4.7300    4.7400    4.7500    4.7600    4.7700    4.7800    4.7900
    4.8000    4.8100    4.8200    4.8300    4.8400    4.8500    4.8600    4.8700
    4.8800    4.8900    4.9000    4.9100    4.9200    4.9300    4.9400    4.9500
    4.9600    4.9700    4.9800    4.9900    5.0000    5.0100    5.0200    5.0300
    5.0400    5.0500    5.0600    5.0700    5.0800    5.0900    5.1000    5.1100
    5.1200    5.1300    5.1400    5.1500    5.1600    5.1700    5.1800    5.1900
    5.2000    5.2100    5.2200    5.2300    5.2400    5.2500    5.2600    5.2700
    5.2800    5.2900    5.3000    5.3100    5.3200    5.3300    5.3400    5.3500
    5.3600    5.3700    5.3800    5.3900    5.4000    5.4100    5.4200    5.4300
    5.4400    5.4500    5.4600    5.4700    5.4800    5.4900    5.5000    5.5100
    5.5200    5.5300    5.5400    5.5500    5.5600    5.5700    5.5800    5.5900
    5.6000    5.6100    5.6200    5.6300    5.6400    5.6500    5.6600    5.6700
    5.6800    5.6900    5.7000    5.7100    5.7200    5.7300    5.7400    5.7500
    5.7600    5.7700    5.7800    5.7900    5.8000    5.8100    5.8200    5.8300
    5.8400    5.8500    5.8600    5.8700    5.8800    5.8900    5.9000    5.9100
    5.9200    5.9300    5.9400    5.9500    5.9600    5.9700    5.9800    5.9900
    6.0000    6.0100    6.0200    6.0300    6.0400    6.0500    6.0600    6.0700
    6.0800    6.0900    6.1000    6.1100    6.1200    6.1300    6.1400    6.1500
    6.1600    6.1700    6.1800    6.1900    6.2000    6.2100    6.2200    6.2300
    6.2400    6.2500    6.2600    6.2700    6.2800    6.2900    6.3000    6.3100
    6.3200    6.3300    6.3400    6.3500    6.3600    6.3700    6.3800    6.3900
    6.4000    6.4100    6.4200    6.4300    6.4400    6.4500    6.4600    6.4700
    6.4800    6.4900    6.5000    6.5100    6.5200    6.5300    6.5400    6.5500
    6.5600    6.5700    6.5800    6.5900    6.6000    6.6100    6.6200    6.6300
    6.6400    6.6500    6.6600    6.6700    6.6800    6.6900    6.7000    6.7100
    6.7200    6.7300    6.7400    6.7500    6.7600    6.7700    6.7800    6.7900
    6.8000    6.8100    6.8200    6.8300    6.8400    6.8500    6.8600    6.8700
    6.8800    6.8900    6.9000    6.9100    6.9200    6.9300    6.9400    6.9500
    6.9600    6.9700    6.9800    6.9900    7.0000    7.0100    7.0200    7.0300
    7.0400    7.0500    7.0600    7.0700    7.0800    7.0900    7.1000    7.1100
    7.1200    7.1300    7.1400    7.1500    7.1600    7.1700    7.1800    7.1900
    7.2000    7.2100    7.2200    7.2300    7.2400    7.2500    7.2600    7.2700
    7.2800    7.2900    7.3000    7.3100    7.3200    7.3300    7.3400    7.3500
    7.3600    7.3700    7.3800    7.3900    7.4000    7.4100    7.4200    7.4300
    7.4400    7.4500    7.4600    7.4700    7.4800    7.4900    7.5000    7.5100
    7.5200    7.5300
   </PP_R>
   <PP_RAB type="real"  size=" 754" columns="8">
    0.0100    0.0100    0.0100    0.0100    0.0100    0.0100    0.0100    0.0100
    0.0100    0.0100    0.0100    0.0100    0.0100    0.0100    0.0100    0.0100
    0.0100    0.0100    0.0100    0.0100    0.0100    0.0100    0.0100    0.0100
    0.0100    0.0100    0.0100    0.0100    0.0100    0.0100    0.0100    0.0100
    0.0100    0.0100    0.0100    0.0100    0.0100    0.0100    0.0100    0.0100
    0.0100    0.0100    0.0100    0.0100    0.0100    0.0100    0.0100    0.0100
    0.0100    0.0100    0.0100    0.0100    0.0100    0.0100    0.0100    0.0100
    0.0100    0.0100    0.0100    0.0100    0.0100    0.0100    0.0100    0.0100
    0.0100    0.0100    0.0100    0.0100    0.0100    0.0100    0.0100    0.0100
    0.0100    0.0100    0.0100    0.0100    0.0100    0.0100    0.0100    0.0100
    0.0100    0.0100    0.0100    0.0100    0.0100    0.0100    0.0100    0.0100
    0.0100    0.0100    0.0100    0.0100    0.0100    0.0100    0.0100    0.0100
    0.0100    0.0100    0.0100    0.0100    0.0100    0.0100    0.0100    0.0100
    0.0100    0.0100    0.0100    0.0100    0.0100    0.0100    0.0100    0.0100
    0.0100    0.0100    0.0100    0.0100    0.0100    0.0100    0.0100    0.0100
    0.0100    0.0100    0.0100    0.0100    0.0100    0.0100    0.0100    0.0100
    0.0100    0.0100    0.0100    0.0100    0.0100    0.0100    0.0100    0.0100
    0.0100    0.0100    0.0100    0.0100    0.0100    0.0100    0.0100    0.0100
    0.0100    0.0100    0.0100    0.0100    0.0100    0.0100    0.0100    0.0100
    0.0100    0.0100    0.0100    0.0100    0.0100    0.0100    0.0100    0.0100
    0.0100    0.0100    0.0100    0.0100    0.0100    0.0100    0.0100    0.0100
    0.0100    0.0100    0.0100    0.0100    0.0100    0.0100    0.0100    0.0100
    0.0100    0.0100    0.0100    0.0100    0.0100    0.0100    0.0100    0.0100
    0.0100    0.0100    0.0100    0.0100    0.0100    0.0100    0.0100    0.0100
    0.0100    0.0100    0.0100    0.0100    0.0100    0.0100    0.0100    0.0100
    0.0100    0.0100    0.0100    0.0100    0.0100    0.0100    0.0100    0.0100
    0.0100    0.0100    0.0100    0.0100    0.0100    0.0100    0.0100    0.0100
    0.0100    0.0100    0.0100    0.0100    0.0100    0.0100    0.0100    0.0100
    0.0100    0.0100    0.0100    0.0100    0.0100    0.0100    0.0100    0.0100
    0.0100    0.0100    0.0100    0.0100    0.0100    0.0100    0.0100    0.0100
    0.0100    0.0100    0.0100    0.0100    0.0100    0.0100    0.0100    0.0100
    0.0100    0.0100    0.0100    0.0100    0.0100    0.0100    0.0100    0.0100
    0.0100    0.0100    0.0100    0.0100    0.0100    0.0100    0.0100    0.0100
    0.0100    0.0100    0.0100    0.0100    0.0100    0.0100    0.0100    0.0100
    0.0100    0.0100    0.0100    0.0100    0.0100    0.0100    0.0100    0.0100
    0.0100    0.0100    0.0100    0.0100    0.0100    0.0100    0.0100    0.0100
    0.0100    0.0100    0.0100    0.0100    0.0100    0.0100    0.0100    0.0100
    0.0100    0.0100    0.0100    0.0100    0.0100    0.0100    0.0100    0.0100
    0.0100    0.0100    0.0100    0.0100    0.0100    0.0100    0.0100    0.0100
    0.0100    0.0100    0.0100    0.0100    0.0100    0.0100    0.0100    0.0100
    0.0100    0.0100    0.0100    0.0100    0.0100    0.0100    0.0100    0.0100
    0.0100    0.0100    0.0100    0.0100    0.0100    0.0100    0.0100    0.0100
    0.0100    0.0100    0.0100    0.0100    0.0100    0.0100    0.0100    0.0100
    0.0100    0.0100    0.0100    0.0100    0.0100    0.0100    0.0100    0.0100
    0.0100    0.0100    0.0100    0.0100    0.0100    0.0100    0.0100    0.0100
    0.0100    0.0100    0.0100    0.0100    0.0100    0.0100    0.0100    0.0100
    0.0100    0.0100    0.0100    0.0100    0.0100    0.0100    0.0100    0.0100
    0.0100    0.0100    0.0100    0.0100    0.0100    0.0100    0.0100    0.0100
    0.0100    0.0100    0.0100    0.0100    0.0100    0.0100    0.0100    0.0100
    0.0100    0.0100    0.0100    0.0100    0.0100    0.0100    0.0100    0.0100
    0.0100    0.0100    0.0100    0.0100    0.0100    0.0100    0.0100    0.0100
    0.0100    0.0100    0.0100    0.0100    0.0100    0.0100    0.0100    0.0100
    0.0100    0.0100    0.0100    0.0100    0.0100    0.0100    0.0100    0.0100
    0.0100    0.0100    0.0100    0.0100    0.0100    0.0100    0.0100    0.0100
    0.0100    0.0100    0.0100    0.0100    0.0100    0.0100    0.0100    0.0100
    0.0100    0.0100    0.0100    0.0100    0.0100    0.0100    0.0100    0.0100
    0.0100    0.0100    0.0100    0.0100    0.0100    0.0100    0.0100    0.0100
    0.0100    0.0100    0.0100    0.0100    0.0100    0.0100    0.0100    0.0100
    0.0100    0.0100    0.0100    0.0100    0.0100    0.0100    0.0100    0.0100
    0.0100    0.0100    0.0100    0.0100    0.0100    0.0100    0.0100    0.0100
    0.0100    0.0100    0.0100    0.0100    0.0100    0.0100    0.0100    0.0100
    0.0100    0.0100    0.0100    0.0100    0.0100    0.0100    0.0100    0.0100
    0.0100    0.0100    0.0100    0.0100    0.0100    0.0100    0.0100    0.0100
    0.0100    0.0100    0.0100    0.0100    0.0100    0.0100    0.0100    0.0100
    0.0100    0.0100    0.0100    0.0100    0.0100    0.0100    0.0100    0.0100
    0.0100    0.0100    0.0100    0.0100    0.0100    0.0100    0.0100    0.0100
    0.0100    0.0100    0.0100    0.0100    0.0100    0.0100    0.0100    0.0100
    0.0100    0.0100    0.0100    0.0100    0.0100    0.0100    0.0100    0.0100
    0.0100    0.0100    0.0100    0.0100    0.0100    0.0100    0.0100    0.0100
    0.0100    0.0100    0.0100    0.0100    0.0100    0.0100    0.0100    0.0100
    0.0100    0.0100    0.0100    0.0100    0.0100    0.0100    0.0100    0.0100
    0.0100    0.0100    0.0100    0.0100    0.0100    0.0100    0.0100    0.0100
    0.0100    0.0100    0.0100    0.0100    0.0100    0.0100    0.0100    0.0100
    0.0100    0.0100    0.0100    0.0100    0.0100    0.0100    0.0100    0.0100
    0.0100    0.0100    0.0100    0.0100    0.0100    0.0100    0.0100    0.0100
    0.0100    0.0100    0.0100    0.0100    0.0100    0.0100    0.0100    0.0100
    0.0100    0.0100    0.0100    0.0100    0.0100    0.0100    0.0100    0.0100
    0.0100    0.0100    0.0100    0.0100    0.0100    0.0100    0.0100    0.0100
    0.0100    0.0100    0.0100    0.0100    0.0100    0.0100    0.0100    0.0100
    0.0100    0.0100    0.0100    0.0100    0.0100    0.0100    0.0100    0.0100
    0.0100    0.0100    0.0100    0.0100    0.0100    0.0100    0.0100    0.0100
    0.0100    0.0100    0.0100    0.0100    0.0100    0.0100    0.0100    0.0100
    0.0100    0.0100    0.0100    0.0100    0.0100    0.0100    0.0100    0.0100
    0.0100    0.0100    0.0100    0.0100    0.0100    0.0100    0.0100    0.0100
    0.0100    0.0100    0.0100    0.0100    0.0100    0.0100    0.0100    0.0100
    0.0100    0.0100    0.0100    0.0100    0.0100    0.0100    0.0100    0.0100
    0.0100    0.0100    0.0100    0.0100    0.0100    0.0100    0.0100    0.0100
    0.0100    0.0100    0.0100    0.0100    0.0100    0.0100    0.0100    0.0100
    0.0100    0.0100    0.0100    0.0100    0.0100    0.0100    0.0100    0.0100
    0.0100    0.0100    0.0100    0.0100    0.0100    0.0100    0.0100    0.0100
    0.0100    0.0100    0.0100    0.0100    0.0100    0.0100    0.0100    0.0100
    0.0100    0.0100    0.0100    0.0100    0.0100    0.0100    0.0100    0.0100
    0.0100    0.0100    0.0100    0.0100    0.0100    0.0100    0.0100    0.0100
    0.0100    0.0100    0.0100    0.0100    0.0100    0.0100    0.0100    0.0100
    0.0100    0.0100
   </PP_RAB>
 </PP_MESH>
  <PP_LOCAL type="real"  size=" 754" columns="4">
   -1.7770256239E+01   -1.7769904785E+01   -1.7768854372E+01   -1.7767058957E+01
   -1.7764455310E+01   -1.7760962215E+01   -1.7756486707E+01   -1.7750930799E+01
   -1.7744198020E+01   -1.7736199208E+01   -1.7726857156E+01   -1.7716109899E+01
   -1.7703912595E+01   -1.7690238114E+01   -1.7675076535E+01   -1.7658433787E+01
   -1.7640329726E+01   -1.7620795857E+01   -1.7599872941E+01   -1.7577608629E+01
   -1.7554055238E+01   -1.7529267761E+01   -1.7503302123E+01   -1.7476213719E+01
   -1.7448056213E+01   -1.7418880582E+01   -1.7388734387E+01   -1.7357661227E+01
   -1.7325700367E+01   -1.7292886495E+01   -1.7259249601E+01   -1.7224814941E+01
   -1.7189603090E+01   -1.7153630054E+01   -1.7116907430E+01   -1.7079442623E+01
   -1.7041239098E+01   -1.7002296661E+01   -1.6962611781E+01   -1.6922177929E+01
   -1.6880985951E+01   -1.6839024457E+01   -1.6796280230E+01   -1.6752738649E+01
   -1.6708384121E+01   -1.6663200524E+01   -1.6617171648E+01   -1.6570281624E+01
   -1.6522515355E+01   -1.6473858917E+01   -1.6424299945E+01   -1.6373827979E+01
   -1.6322434787E+01   -1.6270114635E+01   -1.6216864520E+01   -1.6162684347E+01
   -1.6107577064E+01   -1.6051548743E+01   -1.5994608601E+01   -1.5936768989E+01
   -1.5878045317E+01   -1.5818455949E+01   -1.5758022054E+01   -1.5696767428E+01
   -1.5634718282E+01   -1.5571903019E+01   -1.5508351992E+01   -1.5444097248E+01
   -1.5379172277E+01   -1.5313611760E+01   -1.5247451322E+01   -1.5180727292E+01
   -1.5113476485E+01   -1.5045735992E+01   -1.4977542990E+01   -1.4908934571E+01
   -1.4839947587E+01   -1.4770618518E+01   -1.4700983356E+01   -1.4631077506E+01
   -1.4560935707E+01   -1.4490591962E+01   -1.4420079485E+01   -1.4349430666E+01
   -1.4278677035E+01   -1.4207849243E+01   -1.4136977050E+01   -1.4066089316E+01
   -1.3995214003E+01   -1.3924378170E+01   -1.3853607985E+01   -1.3782928727E+01
   -1.3712364797E+01   -1.3641939722E+01   -1.3571676167E+01   -1.3501595942E+01
   -1.3431720007E+01   -1.3362068479E+01   -1.3292660635E+01   -1.3223514915E+01
   -1.3154648925E+01   -1.3086079432E+01   -1.3017822365E+01   -1.2949892809E+01
   -1.2882304999E+01   -1.2815072317E+01   -1.2748207278E+01   -1.2681721521E+01
   -1.2615625802E+01   -1.2549929979E+01   -1.2484642999E+01   -1.2419772887E+01
   -1.2355326732E+01   -1.2291310677E+01   -1.2227729900E+01   -1.2164588611E+01
   -1.2101890037E+01   -1.2039636413E+01   -1.1977828983E+01   -1.1916467988E+01
   -1.1855552676E+01   -1.1795081299E+01   -1.1735051131E+01   -1.1675458474E+01
   -1.1616298687E+01   -1.1557566207E+01   -1.1499254588E+01   -1.1441356541E+01
   -1.1383863981E+01   -1.1326768089E+01   -1.1270059371E+01   -1.1213727732E+01
   -1.1157762559E+01   -1.1102152800E+01   -1.1046887063E+01   -1.0991953707E+01
   -1.0937340949E+01   -1.0883036961E+01   -1.0829029980E+01   -1.0775308414E+01
   -1.0721860940E+01   -1.0668676611E+01   -1.0615744947E+01   -1.0563056029E+01
   -1.0510600579E+01   -1.0458370037E+01   -1.0406356623E+01   -1.0354553395E+01
   -1.0302954288E+01   -1.0251554148E+01   -1.0200348753E+01   -1.0149334821E+01
   -1.0098510005E+01   -1.0047872883E+01   -9.9974229301E+00   -9.9471604886E+00
   -9.8970867237E+00   -9.8472035747E+00   -9.7975136993E+00   -9.7480204125E+00
   -9.6987276216E+00   -9.6496397583E+00   -9.6007617089E+00   -9.5520987444E+00
   -9.5036564499E+00   -9.4554406566E+00   -9.4074573745E+00   -9.3597127284E+00
   -9.3122128978E+00   -9.2649640592E+00   -9.2179723341E+00   -9.1712437404E+00
   -9.1247841485E+00   -9.0785992429E+00   -9.0326944873E+00   -8.9870750951E+00
   -8.9417460045E+00   -8.8967118574E+00   -8.8519769822E+00   -8.8075453819E+00
   -8.7634207236E+00   -8.7196063332E+00   -8.6761051919E+00   -8.6329199360E+00
   -8.5900528587E+00   -8.5475059144E+00   -8.5052807243E+00   -8.4633785840E+00
   -8.4218004725E+00   -8.3805470615E+00   -8.3396187268E+00   -8.2990155590E+00
   -8.2587373758E+00   -8.2187837339E+00   -8.1791539417E+00   -8.1398470714E+00
   -8.1008619715E+00   -8.0621972789E+00   -8.0238514311E+00   -7.9858226777E+00
   -7.9481090917E+00   -7.9107085807E+00   -7.8736188972E+00   -7.8368376489E+00
   -7.8003623085E+00   -7.7641902230E+00   -7.7283186231E+00   -7.6927446314E+00
   -7.6574652715E+00   -7.6224774762E+00   -7.5877780956E+00   -7.5533639056E+00
   -7.5192316159E+00   -7.4853778786E+00   -7.4517992966E+00   -7.4184924322E+00
   -7.3854538166E+00   -7.3526799586E+00   -7.3201673545E+00   -7.2879124983E+00
   -7.2559118913E+00   -7.2241620533E+00   -7.1926595323E+00   -7.1614009164E+00
   -7.1303828436E+00   -7.0996020130E+00   -7.0690551951E+00   -7.0387392420E+00
   -7.0086510971E+00   -6.9787878036E+00   -6.9491465136E+00   -6.9197244945E+00
   -6.8905191360E+00   -6.8615279548E+00   -6.8327485989E+00   -6.8041788498E+00
   -6.7758166241E+00   -6.7476599732E+00   -6.7197070816E+00   -6.6919562640E+00
   -6.6644059612E+00   -6.6370547339E+00   -6.6099012562E+00   -6.5829443074E+00
   -6.5561827629E+00   -6.5296155841E+00   -6.5032418076E+00   -6.4770605337E+00
   -6.4510709144E+00   -6.4252721407E+00   -6.3996634295E+00   -6.3742440104E+00
   -6.3490131149E+00   -6.3239699648E+00   -6.2991137609E+00   -6.2744436669E+00
   -6.2499587978E+00   -6.2256582112E+00   -6.2015408965E+00   -6.1776057651E+00
   -6.1538516415E+00   -6.1302772559E+00   -6.1068812366E+00   -6.0836620994E+00
   -6.0606182557E+00   -6.0377480244E+00   -6.0150496445E+00   -5.9925212879E+00
   -5.9701610705E+00   -5.9479671042E+00   -5.9259375270E+00   -5.9040705266E+00
   -5.8823643192E+00   -5.8608171346E+00   -5.8394272305E+00   -5.8181928916E+00
   -5.7971124271E+00   -5.7761841702E+00   -5.7554064785E+00   -5.7347777328E+00
   -5.7142963373E+00   -5.6939607188E+00   -5.6737693264E+00   -5.6537206312E+00
   -5.6338131257E+00   -5.6140453237E+00   -5.5944157596E+00   -5.5749229886E+00
   -5.5555655855E+00   -5.5363421451E+00   -5.5172512816E+00   -5.4982916281E+00
   -5.4794618365E+00   -5.4607605772E+00   -5.4421865385E+00   -5.4237384267E+00
   -5.4054149653E+00   -5.3872148953E+00   -5.3691369744E+00   -5.3511799770E+00
   -5.3333426938E+00   -5.3156239317E+00   -5.2980225131E+00   -5.2805372763E+00
   -5.2631670747E+00   -5.2459107767E+00   -5.2287672657E+00   -5.2117354393E+00
   -5.1948142099E+00   -5.1780025034E+00   -5.1612992602E+00   -5.1447034337E+00
   -5.1282139912E+00   -5.1118299129E+00   -5.0955501922E+00   -5.0793738352E+00
   -5.0632998605E+00   -5.0473272992E+00   -5.0314551945E+00   -5.0156826016E+00
   -5.0000085877E+00   -4.9844322313E+00   -4.9689526227E+00   -4.9535688632E+00
   -4.9382800653E+00   -4.9230853524E+00   -4.9079838587E+00   -4.8929747289E+00
   -4.8780571182E+00   -4.8632301920E+00   -4.8484931261E+00   -4.8338451059E+00
   -4.8192853268E+00   -4.8048129937E+00   -4.7904273212E+00   -4.7761275332E+00
   -4.7619128630E+00   -4.7477825527E+00   -4.7337358536E+00   -4.7197720258E+00
   -4.7058903380E+00   -4.6920900676E+00   -4.6783705004E+00   -4.6647309305E+00
   -4.6511706602E+00   -4.6376890001E+00   -4.6242852684E+00   -4.6109587915E+00
   -4.5977089033E+00   -4.5845349455E+00   -4.5714362673E+00   -4.5584122252E+00
   -4.5454621831E+00   -4.5325855121E+00   -4.5197815905E+00   -4.5070498034E+00
   -4.4943895430E+00   -4.4818002082E+00   -4.4692812046E+00   -4.4568319445E+00
   -4.4444518468E+00   -4.4321403366E+00   -4.4198968455E+00   -4.4077208115E+00
   -4.3956116785E+00   -4.3835688967E+00   -4.3715919221E+00   -4.3596802170E+00
   -4.3478332491E+00   -4.3360504923E+00   -4.3243314257E+00   -4.3126755345E+00
   -4.3010823091E+00   -4.2895512455E+00   -4.2780818451E+00   -4.2666736147E+00
   -4.2553260660E+00   -4.2440387164E+00   -4.2328110879E+00   -4.2216427079E+00
   -4.2105331087E+00   -4.1994818273E+00   -4.1884884058E+00   -4.1775523910E+00
   -4.1666733344E+00   -4.1558507921E+00   -4.1450843250E+00   -4.1343734984E+00
   -4.1237178820E+00   -4.1131170500E+00   -4.1025705811E+00   -4.0920780581E+00
   -4.0816390683E+00   -4.0712532028E+00   -4.0609200573E+00   -4.0506392314E+00
   -4.0404103286E+00   -4.0302329567E+00   -4.0201067271E+00   -4.0100312555E+00
   -4.0000061610E+00   -3.9900310669E+00   -3.9801055999E+00   -3.9702293906E+00
   -3.9604020734E+00   -3.9506232859E+00   -3.9408926697E+00   -3.9312098696E+00
   -3.9215745341E+00   -3.9119863151E+00   -3.9024448676E+00   -3.8929498505E+00
   -3.8835009256E+00   -3.8740977580E+00   -3.8647400163E+00   -3.8554273720E+00
   -3.8461594999E+00   -3.8369360779E+00   -3.8277567871E+00   -3.8186213113E+00
   -3.8095293378E+00   -3.8004805564E+00   -3.7914746601E+00   -3.7825113448E+00
   -3.7735903093E+00   -3.7647112550E+00   -3.7558738863E+00   -3.7470779103E+00
   -3.7383230370E+00   -3.7296089789E+00   -3.7209354512E+00   -3.7123021718E+00
   -3.7037088613E+00   -3.6951552426E+00   -3.6866410415E+00   -3.6781659861E+00
   -3.6697298071E+00   -3.6613322375E+00   -3.6529730129E+00   -3.6446518713E+00
   -3.6363685531E+00   -3.6281228008E+00   -3.6199143597E+00   -3.6117429769E+00
   -3.6036084021E+00   -3.5955103872E+00   -3.5874486862E+00   -3.5794230554E+00
   -3.5714332534E+00   -3.5634790406E+00   -3.5555601799E+00   -3.5476764360E+00
   -3.5398275759E+00   -3.5320133687E+00   -3.5242335852E+00   -3.5164879986E+00
   -3.5087763839E+00   -3.5010985180E+00   -3.4934541798E+00   -3.4858431504E+00
   -3.4782652124E+00   -3.4707201504E+00   -3.4632077511E+00   -3.4557278028E+00
   -3.4482800956E+00   -3.4408644215E+00   -3.4334805744E+00   -3.4261283498E+00
   -3.4188075450E+00   -3.4115179589E+00   -3.4042593924E+00   -3.3970316478E+00
   -3.3898345293E+00   -3.3826678426E+00   -3.3755313951E+00   -3.3684249958E+00
   -3.3613484553E+00   -3.3543015859E+00   -3.3472842013E+00   -3.3402961169E+00
   -3.3333371496E+00   -3.3264071177E+00   -3.3195058411E+00   -3.3126331412E+00
   -3.3057888410E+00   -3.2989727647E+00   -3.2921847382E+00   -3.2854245886E+00
   -3.2786921445E+00   -3.2719872361E+00   -3.2653096946E+00   -3.2586593529E+00
   -3.2520360452E+00   -3.2454396069E+00   -3.2388698749E+00   -3.2323266873E+00
   -3.2258098836E+00   -3.2193193044E+00   -3.2128547919E+00   -3.2064161893E+00
   -3.2000033411E+00   -3.1936160931E+00   -3.1872542924E+00   -3.1809177872E+00
   -3.1746064269E+00   -3.1683200621E+00   -3.1620585446E+00   -3.1558217275E+00
   -3.1496094648E+00   -3.1434216118E+00   -3.1372580249E+00   -3.1311185617E+00
   -3.1250030808E+00   -3.1189114421E+00   -3.1128435062E+00   -3.1067991351E+00
   -3.1007781920E+00   -3.0947805407E+00   -3.0888060464E+00   -3.0828545752E+00
   -3.0769259944E+00   -3.0710201721E+00   -3.0651369775E+00   -3.0592762808E+00
   -3.0534379533E+00   -3.0476218670E+00   -3.0418278952E+00   -3.0360559119E+00
   -3.0303057923E+00   -3.0245774123E+00   -3.0188706489E+00   -3.0131853799E+00
   -3.0075214841E+00   -3.0018788413E+00   -2.9962573321E+00   -2.9906568379E+00
   -2.9850772411E+00   -2.9795184249E+00   -2.9739802736E+00   -2.9684626720E+00
   -2.9629655060E+00   -2.9574886624E+00   -2.9520320285E+00   -2.9465954928E+00
   -2.9411789444E+00   -2.9357822733E+00   -2.9304053702E+00   -2.9250481269E+00
   -2.9197104355E+00   -2.9143921893E+00   -2.9090932823E+00   -2.9038136091E+00
   -2.8985530652E+00   -2.8933115468E+00   -2.8880889509E+00   -2.8828851753E+00
   -2.8777001183E+00   -2.8725336791E+00   -2.8673857577E+00   -2.8622562547E+00
   -2.8571450714E+00   -2.8520521098E+00   -2.8469772726E+00   -2.8419204634E+00
   -2.8368815861E+00   -2.8318605457E+00   -2.8268572475E+00   -2.8218715976E+00
   -2.8169035029E+00   -2.8119528708E+00   -2.8070196094E+00   -2.8021036274E+00
   -2.7972048341E+00   -2.7923231397E+00   -2.7874584548E+00   -2.7826106905E+00
   -2.7777797588E+00   -2.7729655721E+00   -2.7681680435E+00   -2.7633870868E+00
   -2.7586226162E+00   -2.7538745465E+00   -2.7491427933E+00   -2.7444272726E+00
   -2.7397279009E+00   -2.7350445956E+00   -2.7303772742E+00   -2.7257258552E+00
   -2.7210902574E+00   -2.7164704002E+00   -2.7118662035E+00   -2.7072775880E+00
   -2.7027044746E+00   -2.6981467848E+00   -2.6936044409E+00   -2.6890773654E+00
   -2.6845654815E+00   -2.6800687128E+00   -2.6755869835E+00   -2.6711202182E+00
   -2.6666683423E+00   -2.6622312813E+00   -2.6578089614E+00   -2.6534013092E+00
   -2.6490082520E+00   -2.6446297173E+00   -2.6402656333E+00   -2.6359159285E+00