<UPF version="2.0.1">
  <PP_INFO>

 Sb_ONCV_PBE-1.0.upf

 This pseudopotential file has been produced using the code
 ONCVPSP  (Optimized Norm-Conservinng Vanderbilt PSeudopotential)
 scalar-relativistic version 2.1.1, 03/26/2014 by D. R. Hamann
 The code is available through a link at URL www.mat-simresearch.com.
 Documentation with the package provides a full discription of the
 input data below.


 While it is not required under the terms of the GNU GPL, it is
 suggested that you cite D. R. Hamann, Phys. Rev. B 88, 085117 (2013)
 in any publication using these pseudopotentials.


 Copyright 2015 The Regents of the University of California
 
 This work is licensed under the Creative Commons Attribution-ShareAlike 
 4.0 International License. To view a copy of this license, visit 
 http://creativecommons.org/licenses/by-sa/4.0/ or send a letter to 
 Creative Commons, PO Box 1866, Mountain View, CA 94042, USA.
 
 This pseudopotential is part of the Schlipf-Gygi norm-conserving 
 pseudopotential library. Its construction parameters were tuned to 
 reproduce materials of a training set with very high accuracy and 
 should be suitable as a general purpose pseudopotential to treat a 
 variety of different compounds. For details of the construction and 
 testing of the pseudopotential please refer to:
 
 [insert reference to paper here]
 
 We kindly ask that you include this reference in all publications 
 associated to this pseudopotential.


    <PP_INPUTFILE>
# ATOM AND REFERENCE CONFIGURATION
# atsym  z    nc    nv    iexc   psfile
  Sb 51.00     8     3     4      upf
#
#   n    l    f        energy (Ha)
    1    0    2.00
    2    0    2.00
    2    1    6.00
    3    0    2.00
    3    1    6.00
    3    2   10.00
    4    0    2.00
    4    1    6.00
    4    2   10.00
    5    0    2.00
    5    1    3.00
#
# PSEUDOPOTENTIAL AND OPTIMIZATION
# lmax
    2
#
#   l,   rc,     ep,   ncon, nbas, qcut
    0   3.11246  -0.47153    5    8   3.54079
    1   2.86313  -0.17743    5    8   4.56321
    2   2.96744  -1.23138    5    8   5.50179
#
# LOCAL POTENTIAL
# lloc, lpopt,  rc(5),   dvloc0
    4    5   1.57694      0.00000
#
# VANDERBILT-KLEINMAN-BYLANDER PROJECTORs
# l, nproj, debl
    0    2   1.26137
    1    2   0.32879
    2    2   1.35903
#
# MODEL CORE CHARGE
# icmod, fcfact
    0   0.00000
#
# LOG DERIVATIVE ANALYSIS
# epsh1, epsh2, depsh
   -5.00    3.00    0.02
#
# OUTPUT GRID
# rlmax, drl
    6.00    0.01
#
# TEST CONFIGURATIONS
# ncnf
    0
# nvcnf
#   n    l    f
    </PP_INPUTFILE>
  </PP_INFO>
  <!--                               -->
  <!-- END OF HUMAN READABLE SECTION -->
  <!--                               -->
    <PP_HEADER
       generated="Generated using ONCVPSP code by D. R. Hamann"
       author="Martin Schlipf and Francois Gygi"
       date="150105"
       comment=""
       element="Sb"
       pseudo_type="NC"
       relativistic="scalar"
       is_ultrasoft="F"
       is_paw="F"
       is_coulomb="F"
       has_so="F"
       has_wfc="F"
       has_gipaw="F"
       core_correction="F"
       functional="PBE"
       z_valence="   15.00"
       total_psenergy="  -7.17757281393E+01"
       rho_cutoff="   6.01000000000E+00"
       l_max="2"
       l_local="-1"
       mesh_size="   602"
       number_of_wfc="0"
       number_of_proj="6"/>
 <PP_MESH>
   <PP_R type="real"  size=" 602" columns="8">
    0.0000    0.0100    0.0200    0.0300    0.0400    0.0500    0.0600    0.0700
    0.0800    0.0900    0.1000    0.1100    0.1200    0.1300    0.1400    0.1500
    0.1600    0.1700    0.1800    0.1900    0.2000    0.2100    0.2200    0.2300
    0.2400    0.2500    0.2600    0.2700    0.2800    0.2900    0.3000    0.3100
    0.3200    0.3300    0.3400    0.3500    0.3600    0.3700    0.3800    0.3900
    0.4000    0.4100    0.4200    0.4300    0.4400    0.4500    0.4600    0.4700
    0.4800    0.4900    0.5000    0.5100    0.5200    0.5300    0.5400    0.5500
    0.5600    0.5700    0.5800    0.5900    0.6000    0.6100    0.6200    0.6300
    0.6400    0.6500    0.6600    0.6700    0.6800    0.6900    0.7000    0.7100
    0.7200    0.7300    0.7400    0.7500    0.7600    0.7700    0.7800    0.7900
    0.8000    0.8100    0.8200    0.8300    0.8400    0.8500    0.8600    0.8700
    0.8800    0.8900    0.9000    0.9100    0.9200    0.9300    0.9400    0.9500
    0.9600    0.9700    0.9800    0.9900    1.0000    1.0100    1.0200    1.0300
    1.0400    1.0500    1.0600    1.0700    1.0800    1.0900    1.1000    1.1100
    1.1200    1.1300    1.1400    1.1500    1.1600    1.1700    1.1800    1.1900
    1.2000    1.2100    1.2200    1.2300    1.2400    1.2500    1.2600    1.2700
    1.2800    1.2900    1.3000    1.3100    1.3200    1.3300    1.3400    1.3500
    1.3600    1.3700    1.3800    1.3900    1.4000    1.4100    1.4200    1.4300
    1.4400    1.4500    1.4600    1.4700    1.4800    1.4900    1.5000    1.5100
    1.5200    1.5300    1.5400    1.5500    1.5600    1.5700    1.5800    1.5900
    1.6000    1.6100    1.6200    1.6300    1.6400    1.6500    1.6600    1.6700
    1.6800    1.6900    1.7000    1.7100    1.7200    1.7300    1.7400    1.7500
    1.7600    1.7700    1.7800    1.7900    1.8000    1.8100    1.8200    1.8300
    1.8400    1.8500    1.8600    1.8700    1.8800    1.8900    1.9000    1.9100
    1.9200    1.9300    1.9400    1.9500    1.9600    1.9700    1.9800    1.9900
    2.0000    2.0100    2.0200    2.0300    2.0400    2.0500    2.0600    2.0700
    2.0800    2.0900    2.1000    2.1100    2.1200    2.1300    2.1400    2.1500
    2.1600    2.1700    2.1800    2.1900    2.2000    2.2100    2.2200    2.2300
    2.2400    2.2500    2.2600    2.2700    2.2800    2.2900    2.3000    2.3100
    2.3200    2.3300    2.3400    2.3500    2.3600    2.3700    2.3800    2.3900
    2.4000    2.4100    2.4200    2.4300    2.4400    2.4500    2.4600    2.4700
    2.4800    2.4900    2.5000    2.5100    2.5200    2.5300    2.5400    2.5500
    2.5600    2.5700    2.5800    2.5900    2.6000    2.6100    2.6200    2.6300
    2.6400    2.6500    2.6600    2.6700    2.6800    2.6900    2.7000    2.7100
    2.7200    2.7300    2.7400    2.7500    2.7600    2.7700    2.7800    2.7900
    2.8000    2.8100    2.8200    2.8300    2.8400    2.8500    2.8600    2.8700
    2.8800    2.8900    2.9000    2.9100    2.9200    2.9300    2.9400    2.9500
    2.9600    2.9700    2.9800    2.9900    3.0000    3.0100    3.0200    3.0300
    3.0400    3.0500    3.0600    3.0700    3.0800    3.0900    3.1000    3.1100
    3.1200    3.1300    3.1400    3.1500    3.1600    3.1700    3.1800    3.1900
    3.2000    3.2100    3.2200    3.2300    3.2400    3.2500    3.2600    3.2700
    3.2800    3.2900    3.3000    3.3100    3.3200    3.3300    3.3400    3.3500
    3.3600    3.3700    3.3800    3.3900    3.4000    3.4100    3.4200    3.4300
    3.4400    3.4500    3.4600    3.4700    3.4800    3.4900    3.5000    3.5100
    3.5200    3.5300    3.5400    3.5500    3.5600    3.5700    3.5800    3.5900
    3.6000    3.6100    3.6200    3.6300    3.6400    3.6500    3.6600    3.6700
    3.6800    3.6900    3.7000    3.7100    3.7200    3.7300    3.7400    3.7500
    3.7600    3.7700    3.7800    3.7900    3.8000    3.8100    3.8200    3.8300
    3.8400    3.8500    3.8600    3.8700    3.8800    3.8900    3.9000    3.9100
    3.9200    3.9300    3.9400    3.9500    3.9600    3.9700    3.9800    3.9900
    4.0000    4.0100    4.0200    4.0300    4.0400    4.0500    4.0600    4.0700
    4.0800    4.0900    4.1000    4.1100    4.1200    4.1300    4.1400    4.1500
    4.1600    4.1700    4.1800    4.1900    4.2000    4.2100    4.2200    4.2300
    4.2400    4.2500    4.2600    4.2700    4.2800    4.2900    4.3000    4.3100
    4.3200    4.3300    4.3400    4.3500    4.3600    4.3700    4.3800    4.3900
    4.4000    4.4100    4.4200    4.4300    4.4400    4.4500    4.4600    4.4700
    4.4800    4.4900    4.5000    4.5100    4.5200    4.5300    4.5400    4.5500
    4.5600    4.5700    4.5800    4.5900    4.6000    4.6100    4.6200    4.6300
    4.6400    4.6500    4.6600    4.6700    4.6800    4.6900    4.7000    4.7100
    4.7200    4.7300    4.7400    4.7500    4.7600    4.7700    4.7800    4.7900
    4.8000    4.8100    4.8200    4.8300    4.8400    4.8500    4.8600    4.8700
    4.8800    4.8900    4.9000    4.9100    4.9200    4.9300    4.9400    4.9500
    4.9600    4.9700    4.9800    4.9900    5.0000    5.0100    5.0200    5.0300
    5.0400    5.0500    5.0600    5.0700    5.0800    5.0900    5.1000    5.1100
    5.1200    5.1300    5.1400    5.1500    5.1600    5.1700    5.1800    5.1900
    5.2000    5.2100    5.2200    5.2300    5.2400    5.2500    5.2600    5.2700
    5.2800    5.2900    5.3000    5.3100    5.3200    5.3300    5.3400    5.3500
    5.3600    5.3700    5.3800    5.3900    5.4000    5.4100    5.4200    5.4300
    5.4400    5.4500    5.4600    5.4700    5.4800    5.4900    5.5000    5.5100
    5.5200    5.5300    5.5400    5.5500    5.5600    5.5700    5.5800    5.5900
    5.6000    5.6100    5.6200    5.6300    5.6400    5.6500    5.6600    5.6700
    5.6800    5.6900    5.7000    5.7100    5.7200    5.7300    5.7400    5.7500
    5.7600    5.7700    5.7800    5.7900    5.8000    5.8100    5.8200    5.8300
    5.8400    5.8500    5.8600    5.8700    5.8800    5.8900    5.9000    5.9100
    5.9200    5.9300    5.9400    5.9500    5.9600    5.9700    5.9800    5.9900
    6.0000    6.0100
   </PP_R>
   <PP_RAB type="real"  size=" 602" columns="8">
    0.0100    0.0100    0.0100    0.0100    0.0100    0.0100    0.0100    0.0100
    0.0100    0.0100    0.0100    0.0100    0.0100    0.0100    0.0100    0.0100
    0.0100    0.0100    0.0100    0.0100    0.0100    0.0100    0.0100    0.0100
    0.0100    0.0100    0.0100    0.0100    0.0100    0.0100    0.0100    0.0100
    0.0100    0.0100    0.0100    0.0100    0.0100    0.0100    0.0100    0.0100
    0.0100    0.0100    0.0100    0.0100    0.0100    0.0100    0.0100    0.0100
    0.0100    0.0100    0.0100    0.0100    0.0100    0.0100    0.0100    0.0100
    0.0100    0.0100    0.0100    0.0100    0.0100    0.0100    0.0100    0.0100
    0.0100    0.0100    0.0100    0.0100    0.0100    0.0100    0.0100    0.0100
    0.0100    0.0100    0.0100    0.0100    0.0100    0.0100    0.0100    0.0100
    0.0100    0.0100    0.0100    0.0100    0.0100    0.0100    0.0100    0.0100
    0.0100    0.0100    0.0100    0.0100    0.0100    0.0100    0.0100    0.0100
    0.0100    0.0100    0.0100    0.0100    0.0100    0.0100    0.0100    0.0100
    0.0100    0.0100    0.0100    0.0100    0.0100    0.0100    0.0100    0.0100
    0.0100    0.0100    0.0100    0.0100    0.0100    0.0100    0.0100    0.0100
    0.0100    0.0100    0.0100    0.0100    0.0100    0.0100    0.0100    0.0100
    0.0100    0.0100    0.0100    0.0100    0.0100    0.0100    0.0100    0.0100
    0.0100    0.0100    0.0100    0.0100    0.0100    0.0100    0.0100    0.0100
    0.0100    0.0100    0.0100    0.0100    0.0100    0.0100    0.0100    0.0100
    0.0100    0.0100    0.0100    0.0100    0.0100    0.0100    0.0100    0.0100
    0.0100    0.0100    0.0100    0.0100    0.0100    0.0100    0.0100    0.0100
    0.0100    0.0100    0.0100    0.0100    0.0100    0.0100    0.0100    0.0100
    0.0100    0.0100    0.0100    0.0100    0.0100    0.0100    0.0100    0.0100
    0.0100    0.0100    0.0100    0.0100    0.0100    0.0100    0.0100    0.0100
    0.0100    0.0100    0.0100    0.0100    0.0100    0.0100    0.0100    0.0100
    0.0100    0.0100    0.0100    0.0100    0.0100    0.0100    0.0100    0.0100
    0.0100    0.0100    0.0100    0.0100    0.0100    0.0100    0.0100    0.0100
    0.0100    0.0100    0.0100    0.0100    0.0100    0.0100    0.0100    0.0100
    0.0100    0.0100    0.0100    0.0100    0.0100    0.0100    0.0100    0.0100
    0.0100    0.0100    0.0100    0.0100    0.0100    0.0100    0.0100    0.0100
    0.0100    0.0100    0.0100    0.0100    0.0100    0.0100    0.0100    0.0100
    0.0100    0.0100    0.0100    0.0100    0.0100    0.0100    0.0100    0.0100
    0.0100    0.0100    0.0100    0.0100    0.0100    0.0100    0.0100    0.0100
    0.0100    0.0100    0.0100    0.0100    0.0100    0.0100    0.0100    0.0100
    0.0100    0.0100    0.0100    0.0100    0.0100    0.0100    0.0100    0.0100
    0.0100    0.0100    0.0100    0.0100    0.0100    0.0100    0.0100    0.0100
    0.0100    0.0100    0.0100    0.0100    0.0100    0.0100    0.0100    0.0100
    0.0100    0.0100    0.0100    0.0100    0.0100    0.0100    0.0100    0.0100
    0.0100    0.0100    0.0100    0.0100    0.0100    0.0100    0.0100    0.0100
    0.0100    0.0100    0.0100    0.0100    0.0100    0.0100    0.0100    0.0100
    0.0100    0.0100    0.0100    0.0100    0.0100    0.0100    0.0100    0.0100
    0.0100    0.0100    0.0100    0.0100    0.0100    0.0100    0.0100    0.0100
    0.0100    0.0100    0.0100    0.0100    0.0100    0.0100    0.0100    0.0100
    0.0100    0.0100    0.0100    0.0100    0.0100    0.0100    0.0100    0.0100
    0.0100    0.0100    0.0100    0.0100    0.0100    0.0100    0.0100    0.0100
    0.0100    0.0100    0.0100    0.0100    0.0100    0.0100    0.0100    0.0100
    0.0100    0.0100    0.0100    0.0100    0.0100    0.0100    0.0100    0.0100
    0.0100    0.0100    0.0100    0.0100    0.0100    0.0100    0.0100    0.0100
    0.0100    0.0100    0.0100    0.0100    0.0100    0.0100    0.0100    0.0100
    0.0100    0.0100    0.0100    0.0100    0.0100    0.0100    0.0100    0.0100
    0.0100    0.0100    0.0100    0.0100    0.0100    0.0100    0.0100    0.0100
    0.0100    0.0100    0.0100    0.0100    0.0100    0.0100    0.0100    0.0100
    0.0100    0.0100    0.0100    0.0100    0.0100    0.0100    0.0100    0.0100
    0.0100    0.0100    0.0100    0.0100    0.0100    0.0100    0.0100    0.0100
    0.0100    0.0100    0.0100    0.0100    0.0100    0.0100    0.0100    0.0100
    0.0100    0.0100    0.0100    0.0100    0.0100    0.0100    0.0100    0.0100
    0.0100    0.0100    0.0100    0.0100    0.0100    0.0100    0.0100    0.0100
    0.0100    0.0100    0.0100    0.0100    0.0100    0.0100    0.0100    0.0100
    0.0100    0.0100    0.0100    0.0100    0.0100    0.0100    0.0100    0.0100
    0.0100    0.0100    0.0100    0.0100    0.0100    0.0100    0.0100    0.0100
    0.0100    0.0100    0.0100    0.0100    0.0100    0.0100    0.0100    0.0100
    0.0100    0.0100    0.0100    0.0100    0.0100    0.0100    0.0100    0.0100
    0.0100    0.0100    0.0100    0.0100    0.0100    0.0100    0.0100    0.0100
    0.0100    0.0100    0.0100    0.0100    0.0100    0.0100    0.0100    0.0100
    0.0100    0.0100    0.0100    0.0100    0.0100    0.0100    0.0100    0.0100
    0.0100    0.0100    0.0100    0.0100    0.0100    0.0100    0.0100    0.0100
    0.0100    0.0100    0.0100    0.0100    0.0100    0.0100    0.0100    0.0100
    0.0100    0.0100    0.0100    0.0100    0.0100    0.0100    0.0100    0.0100
    0.0100    0.0100    0.0100    0.0100    0.0100    0.0100    0.0100    0.0100
    0.0100    0.0100    0.0100    0.0100    0.0100    0.0100    0.0100    0.0100
    0.0100    0.0100    0.0100    0.0100    0.0100    0.0100    0.0100    0.0100
    0.0100    0.0100    0.0100    0.0100    0.0100    0.0100    0.0100    0.0100
    0.0100    0.0100    0.0100    0.0100    0.0100    0.0100    0.0100    0.0100
    0.0100    0.0100    0.0100    0.0100    0.0100    0.0100    0.0100    0.0100
    0.0100    0.0100    0.0100    0.0100    0.0100    0.0100    0.0100    0.0100
    0.0100    0.0100
   </PP_RAB>
 </PP_MESH>
  <PP_LOCAL type="real"  size=" 602" columns="4">
   -3.9000287168E+01   -3.9030102870E+01   -3.9036013665E+01   -3.9064334278E+01
   -3.9161379434E+01   -3.9420072982E+01   -3.9939605459E+01   -4.0617850265E+01
   -4.0957160827E+01   -4.0542303541E+01   -3.9703454898E+01   -3.9020940447E+01
   -3.8668410422E+01   -3.8536574606E+01   -3.8497912629E+01   -3.8482664418E+01
   -3.8463940159E+01   -3.8434800846E+01   -3.8395425193E+01   -3.8347800840E+01
   -3.8293953421E+01   -3.8235520584E+01   -3.8173750768E+01   -3.8109596997E+01
   -3.8043805041E+01   -3.7976974503E+01   -3.7909594406E+01   -3.7842060364E+01
   -3.7774679035E+01   -3.7707664899E+01   -3.7641132846E+01   -3.7575089120E+01
   -3.7509422971E+01   -3.7443901030E+01   -3.7378165739E+01   -3.7311738920E+01
   -3.7244032337E+01   -3.7174364292E+01   -3.7101982999E+01   -3.7026095798E+01
   -3.6945902402E+01   -3.6860630605E+01   -3.6769572435E+01   -3.6672117728E+01
   -3.6567783318E+01   -3.6456235460E+01   -3.6337304932E+01   -3.6210992099E+01
   -3.6077463216E+01   -3.5937037790E+01   -3.5790167959E+01   -3.5637414327E+01
   -3.5479414062E+01   -3.5316850522E+01   -3.5150423041E+01   -3.4980819063E+01
   -3.4808690719E+01   -3.4634637547E+01   -3.4459193609E+01   -3.4282822290E+01
   -3.4105912512E+01   -3.3928784833E+01   -3.3751692161E+01   -3.3574830973E+01
   -3.3398348120E+01   -3.3222348002E+01   -3.3046902215E+01   -3.2872056208E+01
   -3.2697834455E+01   -3.2524246594E+01   -3.2351291132E+01   -3.2178958552E+01
   -3.2007233482E+01   -3.1836096353E+01   -3.1665524446E+01   -3.1495492394E+01
   -3.1325972389E+01   -3.1156934123E+01   -3.0988344566E+01   -3.0820167659E+01
   -3.0652363875E+01   -3.0484889924E+01   -3.0317698471E+01   -3.0150737962E+01
   -2.9983952607E+01   -2.9817282557E+01   -2.9650664280E+01   -2.9484031167E+01
   -2.9317314364E+01   -2.9150443832E+01   -2.8983349583E+01   -2.8815963066E+01
   -2.8648218824E+01   -2.8480056050E+01   -2.8311420224E+01   -2.8142264683E+01
   -2.7972552058E+01   -2.7802255515E+01   -2.7631359751E+01   -2.7459861591E+01
   -2.7287770187E+01   -2.7115108458E+01   -2.6941911341E+01   -2.6768225682E+01
   -2.6594109397E+01   -2.6419630144E+01   -2.6244864883E+01   -2.6069898367E+01
   -2.5894820975E+01   -2.5719727662E+01   -2.5544716590E+01   -2.5369888232E+01
   -2.5195343366E+01   -2.5021182296E+01   -2.4847504346E+01   -2.4674406267E+01
   -2.4501981786E+01   -2.4330321460E+01   -2.4159512786E+01   -2.3989637752E+01
   -2.3820774772E+01   -2.3652998748E+01   -2.3486379236E+01   -2.3320981464E+01
   -2.3156867454E+01   -2.2994094694E+01   -2.2832716077E+01   -2.2672781933E+01
   -2.2514338601E+01   -2.2357428185E+01   -2.2202090846E+01   -2.2048362840E+01
   -2.1896276937E+01   -2.1745864480E+01   -2.1597152439E+01   -2.1450165416E+01
   -2.1304926646E+01   -2.1161454397E+01   -2.1019766127E+01   -2.0879876168E+01
   -2.0741795267E+01   -2.0605533836E+01   -2.0471096741E+01   -2.0338488231E+01
   -2.0207709245E+01   -2.0078756917E+01   -1.9951628172E+01   -1.9826313375E+01
   -1.9702803551E+01   -1.9581083994E+01   -1.9461138449E+01   -1.9342947588E+01
   -1.9226487485E+01   -1.9111734049E+01   -1.8998655739E+01   -1.8887223271E+01
   -1.8777398293E+01   -1.8669144752E+01   -1.8562418884E+01   -1.8457178277E+01
   -1.8353377398E+01   -1.8250971951E+01   -1.8149917955E+01   -1.8050172201E+01
   -1.7951691945E+01   -1.7854435675E+01   -1.7758362203E+01   -1.7663432206E+01
   -1.7569606561E+01   -1.7476848607E+01   -1.7385121869E+01   -1.7294392733E+01
   -1.7204627984E+01   -1.7115797288E+01   -1.7027871263E+01   -1.6940822904E+01
   -1.6854627110E+01   -1.6769260084E+01   -1.6684701204E+01   -1.6600929646E+01
   -1.6517929114E+01   -1.6435681488E+01   -1.6354174178E+01   -1.6273391576E+01
   -1.6193323493E+01   -1.6113957296E+01   -1.6035283336E+01   -1.5957291417E+01
   -1.5879971789E+01   -1.5803315124E+01   -1.5727311575E+01   -1.5651950731E+01
   -1.5577222870E+01   -1.5503115068E+01   -1.5429616869E+01   -1.5356713308E+01
   -1.5284391038E+01   -1.5212634561E+01   -1.5141426805E+01   -1.5070751848E+01
   -1.5000590309E+01   -1.4930924352E+01   -1.4861735024E+01   -1.4793003002E+01
   -1.4724709820E+01   -1.4656838468E+01   -1.4589368823E+01   -1.4522288664E+01
   -1.4455581061E+01   -1.4389234016E+01   -1.4323239519E+01   -1.4257583183E+01
   -1.4192265376E+01   -1.4127278737E+01   -1.4062621873E+01   -1.3998298779E+01
   -1.3934306353E+01   -1.3870654421E+01   -1.3807347734E+01   -1.3744392675E+01
   -1.3681800378E+01   -1.3619578818E+01   -1.3557738858E+01   -1.3496291326E+01
   -1.3435246865E+01   -1.3374615262E+01   -1.3314407474E+01   -1.3254633021E+01
   -1.3195299375E+01   -1.3136417043E+01   -1.3077991456E+01   -1.3020028049E+01
   -1.2962535738E+01   -1.2905515204E+01   -1.2848970723E+01   -1.2792906734E+01
   -1.2737322010E+01   -1.2682218782E+01   -1.2627597512E+01   -1.2573455577E+01
   -1.2519793185E+01   -1.2466607862E+01   -1.2413895937E+01   -1.2361655800E+01
   -1.2309883116E+01   -1.2258573417E+01   -1.2207723601E+01   -1.2157328323E+01
   -1.2107382529E+01   -1.2057881992E+01   -1.2008820925E+01   -1.1960193886E+01
   -1.1911995859E+01   -1.1864220962E+01   -1.1816863528E+01   -1.1769918054E+01
   -1.1723378731E+01   -1.1677239821E+01   -1.1631495568E+01   -1.1586140307E+01
   -1.1541168359E+01   -1.1496573894E+01   -1.1452351409E+01   -1.1408495390E+01
   -1.1365000082E+01   -1.1321860116E+01   -1.1279070242E+01   -1.1236624902E+01
   -1.1194518811E+01   -1.1152747068E+01   -1.1111304421E+01   -1.1070185607E+01
   -1.1029386145E+01   -1.0988901189E+01   -1.0948725430E+01   -1.0908854861E+01
   -1.0869284975E+01   -1.0830010824E+01   -1.0791028442E+01   -1.0752333818E+01
   -1.0713922506E+01   -1.0675790417E+01   -1.0637934092E+01   -1.0600349662E+01
   -1.0563032806E+01   -1.0525980670E+01   -1.0489189808E+01   -1.0452656253E+01
   -1.0416377111E+01   -1.0380349588E+01   -1.0344570449E+01   -1.0309036392E+01
   -1.0273745316E+01   -1.0238694571E+01   -1.0203881075E+01   -1.0169302694E+01
   -1.0134957194E+01   -1.0100842100E+01   -1.0066954906E+01   -1.0033293745E+01
   -9.9998564521E+00   -9.9666407520E+00   -9.9336445942E+00   -9.9008659426E+00
   -9.8683026998E+00   -9.8359526941E+00   -9.8038139924E+00   -9.7718845621E+00
   -9.7401623034E+00   -9.7086451969E+00   -9.6773313599E+00   -9.6462188271E+00
   -9.6153054813E+00   -9.5845895256E+00   -9.5540691376E+00   -9.5237424391E+00
   -9.4936073523E+00   -9.4636623095E+00   -9.4339055340E+00   -9.4043352046E+00
   -9.3749494698E+00   -9.3457467687E+00   -9.3167254029E+00   -9.2878835934E+00
   -9.2592196419E+00   -9.2307320426E+00   -9.2024191773E+00   -9.1742793264E+00
   -9.1463109270E+00   -9.1185125208E+00   -9.0908825643E+00   -9.0634194010E+00
   -9.0361215755E+00   -9.0089876845E+00   -8.9820162561E+00   -8.9552057020E+00
   -8.9285546498E+00   -8.9020617567E+00   -8.8757256192E+00   -8.8495447216E+00
   -8.8235177518E+00   -8.7976434329E+00   -8.7719204262E+00   -8.7463472936E+00
   -8.7209227615E+00   -8.6956456236E+00   -8.6705146036E+00   -8.6455283450E+00
   -8.6206855926E+00   -8.5959852154E+00   -8.5714259962E+00   -8.5470066651E+00
   -8.5227259662E+00   -8.4985828475E+00   -8.4745761483E+00   -8.4507046896E+00
   -8.4269671981E+00   -8.4033627032E+00   -8.3798900981E+00   -8.3565482760E+00
   -8.3333360008E+00   -8.3102523153E+00   -8.2872961870E+00   -8.2644665605E+00
   -8.2417622980E+00   -8.2191823834E+00   -8.1967258795E+00   -8.1743917801E+00
   -8.1521790512E+00   -8.1300866038E+00   -8.1081135965E+00   -8.0862590696E+00
   -8.0645220636E+00   -8.0429015094E+00   -8.0213965570E+00   -8.0000063250E+00
   -7.9787298987E+00   -7.9575663198E+00   -7.9365146316E+00   -7.9155740588E+00
   -7.8947437292E+00   -7.8740227703E+00   -7.8534102035E+00   -7.8329052633E+00
   -7.8125071484E+00   -7.7922150269E+00   -7.7720280387E+00   -7.7519452830E+00
   -7.7319660713E+00   -7.7120896107E+00   -7.6923151080E+00   -7.6726416941E+00
   -7.6530686168E+00   -7.6335951758E+00   -7.6142206148E+00   -7.5949441775E+00
   -7.5757649955E+00   -7.5566824418E+00   -7.5376958094E+00   -7.5188043772E+00
   -7.5000074049E+00   -7.4813040910E+00   -7.4626938525E+00   -7.4441760018E+00
   -7.4257498515E+00   -7.4074146704E+00   -7.3891697469E+00   -7.3710145042E+00
   -7.3529482868E+00   -7.3349704395E+00   -7.3170802467E+00   -7.2992770675E+00
   -7.2815603371E+00   -7.2639294306E+00   -7.2463837230E+00   -7.2289225211E+00
   -7.2115452358E+00   -7.1942513204E+00   -7.1770401788E+00   -7.1599112153E+00
   -7.1428637644E+00   -7.1258972717E+00   -7.1090112137E+00   -7.0922050226E+00
   -7.0754781300E+00   -7.0588299035E+00   -7.0422598071E+00   -7.0257673463E+00
   -7.0093519796E+00   -6.9930131654E+00   -6.9767503089E+00   -6.9605628772E+00
   -6.9444504102E+00   -6.9284123913E+00   -6.9124483042E+00   -6.8965575971E+00
   -6.8807397257E+00   -6.8649942684E+00   -6.8493207331E+00   -6.8337186273E+00
   -6.8181874465E+00   -6.8027266225E+00   -6.7873357761E+00   -6.7720144380E+00
   -6.7567621387E+00   -6.7415784089E+00   -6.7264626951E+00   -6.7114146130E+00
   -6.6964337318E+00   -6.6815196040E+00   -6.6666717822E+00   -6.6518897694E+00
   -6.6371731271E+00   -6.6225214788E+00   -6.6079343978E+00   -6.5934114575E+00
   -6.5789522224E+00   -6.5645561894E+00   -6.5502230381E+00   -6.5359523618E+00
   -6.5217437538E+00   -6.5075968071E+00   -6.4935110566E+00   -6.4794861288E+00
   -6.4655216722E+00   -6.4516172990E+00   -6.4377726213E+00   -6.4239872437E+00
   -6.4102607036E+00   -6.3965927147E+00   -6.3829829070E+00   -6.3694309109E+00
   -6.3559363566E+00   -6.3424988309E+00   -6.3291179681E+00   -6.3157934628E+00
   -6.3025249625E+00   -6.2893121145E+00   -6.2761545664E+00   -6.2630518949E+00
   -6.2500038139E+00   -6.2370100045E+00   -6.2240701304E+00   -6.2111838556E+00
   -6.1983508378E+00   -6.1855706691E+00   -6.1728431077E+00   -6.1601678331E+00
   -6.1475445247E+00   -6.1349728623E+00   -6.1224525030E+00   -6.1099830906E+00
   -6.0975643812E+00   -6.0851960692E+00   -6.0728778491E+00   -6.0606094154E+00
   -6.0483904306E+00   -6.0362205760E+00   -6.0240996105E+00   -6.0120272428E+00
   -6.0000031817E+00   -5.9880271358E+00   -5.9760987785E+00   -5.9642178145E+00
   -5.9523840110E+00   -5.9405970904E+00   -5.9288567748E+00   -5.9171627866E+00
   -5.9055148150E+00   -5.8939125750E+00   -5.8823558473E+00   -5.8708443670E+00
   -5.8593778694E+00   -5.8479560896E+00   -5.8365787377E+00   -5.8252455266E+00
   -5.8139562552E+00   -5.8027106709E+00   -5.7915085213E+00   -5.7803495540E+00
   -5.7692335042E+00   -5.7581600715E+00   -5.7471290772E+00   -5.7361402806E+00
   -5.7251934409E+00   -5.7142883174E+00   -5.7034246695E+00   -5.6926021897E+00
   -5.6818207087E+00   -5.6710800026E+00   -5.6603798419E+00   -5.6497199970E+00
   -5.6391002386E+00   -5.6285202934E+00   -5.6179799542E+00   -5.6074790301E+00
   -5.5970173021E+00   -5.5865945516E+00   -5.5762105597E+00   -5.5658650919E+00
   -5.5555578936E+00   -5.5452888099E+00   -5.5350576321E+00   -5.5248641516E+00
   -5.5147081600E+00   -5.5045894484E+00   -5.4945077571E+00   -5.4844629194E+00
   -5.4744547530E+00   -5.4644830590E+00   -5.4545476385E+00   -5.4446482926E+00
   -5.4347848081E+00   -5.4249569506E+00   -5.4151645822E+00   -5.4054075133E+00
   -5.3956855542E+00   -5.3859985155E+00   -5.3763462074E+00   -5.3667284017E+00
   -5.3571449262E+00   -5.3475956264E+00   -5.3380803216E+00   -5.3285988310E+00
   -5.3191509737E+00   -5.3097365691E+00   -5.3003553803E+00   -5.2910072832E+00
   -5.2816921121E+00   -5.2724096947E+00   -5.2631598587E+00   -5.2539424318E+00
   -5.2447572345E+00   -5.2356040480E+00   -5.2264827623E+00   -5.2173932129E+00
   -5.2083352356E+00   -5.1993086661E+00   -5.1903133401E+00   -5.1813490780E+00
   -5.1724156874E+00   -5.1635130568E+00   -5.1546410293E+00   -5.1457994484E+00
   -5.1369881574E+00   -5.1282069996E+00   -5.1194558003E+00   -5.1107343822E+00
   -5.1020426366E+00   -5.0933804143E+00   -5.0847475658E+00   -5.0761439419E+00
   -5.0675693931E+00   -5.0590237540E+00   -5.0505068517E+00   -5.0420185851E+00
   -5.0335588119E+00   -5.0251273897E+00   -5.0167241760E+00   -5.0083490285E+00
   -5.0000017954E+00   -4.9916822980E+00
  </PP_LOCAL>
 <PP_NONLOCAL>
   <PP_BETA.1
       type="real"
       size=" 602"
       columns="4"
       index="1"
       angular_momentum="0"
       cutoff_radius_index=" 316"
       cutoff_radius="    3.1500000000E+00" >
    0.0000000000E+00   -1.8063558946E-02   -3.6130564497E-02   -5.4204436135E-02
   -7.2288539144E-02   -9.0386157631E-02   -1.0850046770E-01   -1.2663451082E-01
   -1.4479116742E-01   -1.6297313084E-01   -1.8118288153E-01   -1.9942266176E-01
   -2.1769445067E-01   -2.3599993991E-01   -2.5434050976E-01   -2.7271720591E-01
   -2.9113071687E-01   -3.0958135207E-01   -3.2806902077E-01   -3.4659321178E-01
   -3.6515297399E-01   -3.8374689794E-01   -4.0237309827E-01   -4.2102919723E-01
   -4.3971230933E-01   -4.5841902713E-01   -4.7714540812E-01   -4.9588696301E-01
   -5.1463864525E-01   -5.3339484186E-01   -5.5214936580E-01   -5.7089544963E-01
   -5.8962574081E-01   -6.0833229856E-01   -6.2700659220E-01   -6.4563950115E-01
   -6.6422131678E-01   -6.8274174573E-01   -7.0118991509E-01   -7.1955437943E-01
   -7.3782312949E-01   -7.5598360277E-01   -7.7402269595E-01   -7.9192677920E-01
   -8.0968171229E-01   -8.2727286251E-01   -8.4468512478E-01   -8.6190294325E-01
   -8.7891033501E-01   -8.9569091544E-01   -9.1222792440E-01   -9.2850425804E-01
   -9.4450249740E-01   -9.6020493879E-01   -9.7559363486E-01   -9.9065042164E-01
   -1.0053569631E+00   -1.0196947845E+00   -1.0336453174E+00   -1.0471899346E+00
   -1.0603100037E+00   -1.0729869124E+00   -1.0852021388E+00   -1.0969372750E+00
   -1.1081740786E+00   -1.1188945351E+00   -1.1290808870E+00   -1.1387156807E+00
   -1.1477818398E+00   -1.1562626914E+00   -1.1641420200E+00   -1.1714041119E+00
   -1.1780338156E+00   -1.1840165876E+00   -1.1893385313E+00   -1.1939864486E+00
   -1.1979478852E+00   -1.2012111761E+00   -1.2037654892E+00   -1.2056008630E+00
   -1.2067082610E+00   -1.2070795995E+00   -1.2067077861E+00   -1.2055867567E+00
   -1.2037115089E+00   -1.2010781328E+00   -1.1976838398E+00   -1.1935269889E+00
   -1.1886071099E+00   -1.1829249247E+00   -1.1764823620E+00   -1.1692825720E+00