<UPF version="2.0.1">
<PP_INFO>

This pseudopotential file has been produced using the code
ONCVPSP  (Optimized Norm-Conservinng Vanderbilt PSeudopotential)
fully-relativistic version 3.3.0 08/16/2017 by D. R. Hamann
The code is available through a link at URL www.mat-simresearch.com.
Documentation with the package provides a full discription of the
input data below.


While it is not required under the terms of the GNU GPL, it is
suggested that you cite D. R. Hamann, Phys. Rev. B 88, 085117 (2013)
in any publication using these pseudopotentials.

<PP_INPUTFILE>
# ATOM AND REFERENCE CONFIGURATION
# atsym  z   nc   nv     iexc    psfile
Cl 17.00    3    2 -116133      upf
#
#   n    l    f        energy (Ha)
1    0    2.00
2    0    2.00
2    1    6.00
3    0    2.00
3    1    5.00
#
# PSEUDOPOTENTIAL AND OPTIMIZATION
# lmax
2
#
#   l,   rc,     ep,   ncon, nbas, qcut
0   1.55000  -0.75766    4    9   6.80000
1   1.35000  -0.31309    4    8   8.00000
2   1.75000   0.10000    4    9   6.80000
#
# LOCAL POTENTIAL
# lloc, lpopt,  rc(5),   dvloc0
4    5   1.30000      0.00000
#
# VANDERBILT-KLEINMAN-BYLANDER PROJECTORs
# l, nproj, debl
0    2   2.00000
1    2   1.99848
2    2   1.50000
#
# MODEL CORE CHARGE
# icmod, fcfact, rcfact
3   8.00000   1.23000
#
# LOG DERIVATIVE ANALYSIS
# epsh1, epsh2, depsh
-15.00   12.00    0.02
#
# OUTPUT GRID
# rlmax, drl
6.00    0.01
#
# TEST CONFIGURATIONS
# ncnf
0
# nvcnf
#   n    l    f
</PP_INPUTFILE>
</PP_INFO>
<!--                               -->
<!-- END OF HUMAN READABLE SECTION -->
<!--                               -->
<PP_HEADER
generated="Generated using ONCVPSP code by D. R. Hamann"
author="anonymous"
date="180509"
comment=""
element="Cl"
pseudo_type="NC"
relativistic="full"
is_ultrasoft="F"
is_paw="F"
is_coulomb="F"
has_so="T"
has_wfc="F"
has_gipaw="F"
core_correction="T"
functional="PBESOL"
z_valence="    7.00"
total_psenergy="  -2.98984080951E+01"
rho_cutoff="   1.02700000000E+01"
l_max="2"
l_local="-1"
mesh_size="  1028"
number_of_wfc="3"
number_of_proj="10"/>
<PP_MESH>
<PP_R type="real"  size="1028" columns="8">
0.0000    0.0100    0.0200    0.0300    0.0400    0.0500    0.0600    0.0700
0.0800    0.0900    0.1000    0.1100    0.1200    0.1300    0.1400    0.1500
0.1600    0.1700    0.1800    0.1900    0.2000    0.2100    0.2200    0.2300
0.2400    0.2500    0.2600    0.2700    0.2800    0.2900    0.3000    0.3100
0.3200    0.3300    0.3400    0.3500    0.3600    0.3700    0.3800    0.3900
0.4000    0.4100    0.4200    0.4300    0.4400    0.4500    0.4600    0.4700
0.4800    0.4900    0.5000    0.5100    0.5200    0.5300    0.5400    0.5500
0.5600    0.5700    0.5800    0.5900    0.6000    0.6100    0.6200    0.6300
0.6400    0.6500    0.6600    0.6700    0.6800    0.6900    0.7000    0.7100
0.7200    0.7300    0.7400    0.7500    0.7600    0.7700    0.7800    0.7900
0.8000    0.8100    0.8200    0.8300    0.8400    0.8500    0.8600    0.8700
0.8800    0.8900    0.9000    0.9100    0.9200    0.9300    0.9400    0.9500
0.9600    0.9700    0.9800    0.9900    1.0000    1.0100    1.0200    1.0300
1.0400    1.0500    1.0600    1.0700    1.0800    1.0900    1.1000    1.1100
1.1200    1.1300    1.1400    1.1500    1.1600    1.1700    1.1800    1.1900
1.2000    1.2100    1.2200    1.2300    1.2400    1.2500    1.2600    1.2700
1.2800    1.2900    1.3000    1.3100    1.3200    1.3300    1.3400    1.3500
1.3600    1.3700    1.3800    1.3900    1.4000    1.4100    1.4200    1.4300
1.4400    1.4500    1.4600    1.4700    1.4800    1.4900    1.5000    1.5100
1.5200    1.5300    1.5400    1.5500    1.5600    1.5700    1.5800    1.5900
1.6000    1.6100    1.6200    1.6300    1.6400    1.6500    1.6600    1.6700
1.6800    1.6900    1.7000    1.7100    1.7200    1.7300    1.7400    1.7500
1.7600    1.7700    1.7800    1.7900    1.8000    1.8100    1.8200    1.8300
1.8400    1.8500    1.8600    1.8700    1.8800    1.8900    1.9000    1.9100
1.9200    1.9300    1.9400    1.9500    1.9600    1.9700    1.9800    1.9900
2.0000    2.0100    2.0200    2.0300    2.0400    2.0500    2.0600    2.0700
2.0800    2.0900    2.1000    2.1100    2.1200    2.1300    2.1400    2.1500
2.1600    2.1700    2.1800    2.1900    2.2000    2.2100    2.2200    2.2300
2.2400    2.2500    2.2600    2.2700    2.2800    2.2900    2.3000    2.3100
2.3200    2.3300    2.3400    2.3500    2.3600    2.3700    2.3800    2.3900
2.4000    2.4100    2.4200    2.4300    2.4400    2.4500    2.4600    2.4700
2.4800    2.4900    2.5000    2.5100    2.5200    2.5300    2.5400    2.5500
2.5600    2.5700    2.5800    2.5900    2.6000    2.6100    2.6200    2.6300
2.6400    2.6500    2.6600    2.6700    2.6800    2.6900    2.7000    2.7100
2.7200    2.7300    2.7400    2.7500    2.7600    2.7700    2.7800    2.7900
2.8000    2.8100    2.8200    2.8300    2.8400    2.8500    2.8600    2.8700
2.8800    2.8900    2.9000    2.9100    2.9200    2.9300    2.9400    2.9500
2.9600    2.9700    2.9800    2.9900    3.0000    3.0100    3.0200    3.0300
3.0400    3.0500    3.0600    3.0700    3.0800    3.0900    3.1000    3.1100
3.1200    3.1300    3.1400    3.1500    3.1600    3.1700    3.1800    3.1900
3.2000    3.2100    3.2200    3.2300    3.2400    3.2500    3.2600    3.2700
3.2800    3.2900    3.3000    3.3100    3.3200    3.3300    3.3400    3.3500
3.3600    3.3700    3.3800    3.3900    3.4000    3.4100    3.4200    3.4300
3.4400    3.4500    3.4600    3.4700    3.4800    3.4900    3.5000    3.5100
3.5200    3.5300    3.5400    3.5500    3.5600    3.5700    3.5800    3.5900
3.6000    3.6100    3.6200    3.6300    3.6400    3.6500    3.6600    3.6700
3.6800    3.6900    3.7000    3.7100    3.7200    3.7300    3.7400    3.7500
3.7600    3.7700    3.7800    3.7900    3.8000    3.8100    3.8200    3.8300
3.8400    3.8500    3.8600    3.8700    3.8800    3.8900    3.9000    3.9100
3.9200    3.9300    3.9400    3.9500    3.9600    3.9700    3.9800    3.9900
4.0000    4.0100    4.0200    4.0300    4.0400    4.0500    4.0600    4.0700
4.0800    4.0900    4.1000    4.1100    4.1200    4.1300    4.1400    4.1500
4.1600    4.1700    4.1800    4.1900    4.2000    4.2100    4.2200    4.2300
4.2400    4.2500    4.2600    4.2700    4.2800    4.2900    4.3000    4.3100
4.3200    4.3300    4.3400    4.3500    4.3600    4.3700    4.3800    4.3900
4.4000    4.4100    4.4200    4.4300    4.4400    4.4500    4.4600    4.4700
4.4800    4.4900    4.5000    4.5100    4.5200    4.5300    4.5400    4.5500
4.5600    4.5700    4.5800    4.5900    4.6000    4.6100    4.6200    4.6300
4.6400    4.6500    4.6600    4.6700    4.6800    4.6900    4.7000    4.7100
4.7200    4.7300    4.7400    4.7500    4.7600    4.7700    4.7800    4.7900
4.8000    4.8100    4.8200    4.8300    4.8400    4.8500    4.8600    4.8700
4.8800    4.8900    4.9000    4.9100    4.9200    4.9300    4.9400    4.9500
4.9600    4.9700    4.9800    4.9900    5.0000    5.0100    5.0200    5.0300
5.0400    5.0500    5.0600    5.0700    5.0800    5.0900    5.1000    5.1100
5.1200    5.1300    5.1400    5.1500    5.1600    5.1700    5.1800    5.1900
5.2000    5.2100    5.2200    5.2300    5.2400    5.2500    5.2600    5.2700
5.2800    5.2900    5.3000    5.3100    5.3200    5.3300    5.3400    5.3500
5.3600    5.3700    5.3800    5.3900    5.4000    5.4100    5.4200    5.4300
5.4400    5.4500    5.4600    5.4700    5.4800    5.4900    5.5000    5.5100
5.5200    5.5300    5.5400    5.5500    5.5600    5.5700    5.5800    5.5900
5.6000    5.6100    5.6200    5.6300    5.6400    5.6500    5.6600    5.6700
5.6800    5.6900    5.7000    5.7100    5.7200    5.7300    5.7400    5.7500
5.7600    5.7700    5.7800    5.7900    5.8000    5.8100    5.8200    5.8300
5.8400    5.8500    5.8600    5.8700    5.8800    5.8900    5.9000    5.9100
5.9200    5.9300    5.9400    5.9500    5.9600    5.9700    5.9800    5.9900
6.0000    6.0100    6.0200    6.0300    6.0400    6.0500    6.0600    6.0700
6.0800    6.0900    6.1000    6.1100    6.1200    6.1300    6.1400    6.1500
6.1600    6.1700    6.1800    6.1900    6.2000    6.2100    6.2200    6.2300
6.2400    6.2500    6.2600    6.2700    6.2800    6.2900    6.3000    6.3100
6.3200    6.3300    6.3400    6.3500    6.3600    6.3700    6.3800    6.3900
6.4000    6.4100    6.4200    6.4300    6.4400    6.4500    6.4600    6.4700
6.4800    6.4900    6.5000    6.5100    6.5200    6.5300    6.5400    6.5500
6.5600    6.5700    6.5800    6.5900    6.6000    6.6100    6.6200    6.6300
6.6400    6.6500    6.6600    6.6700    6.6800    6.6900    6.7000    6.7100
6.7200    6.7300    6.7400    6.7500    6.7600    6.7700    6.7800    6.7900
6.8000    6.8100    6.8200    6.8300    6.8400    6.8500    6.8600    6.8700
6.8800    6.8900    6.9000    6.9100    6.9200    6.9300    6.9400    6.9500
6.9600    6.9700    6.9800    6.9900    7.0000    7.0100    7.0200    7.0300
7.0400    7.0500    7.0600    7.0700    7.0800    7.0900    7.1000    7.1100
7.1200    7.1300    7.1400    7.1500    7.1600    7.1700    7.1800    7.1900
7.2000    7.2100    7.2200    7.2300    7.2400    7.2500    7.2600    7.2700
7.2800    7.2900    7.3000    7.3100    7.3200    7.3300    7.3400    7.3500
7.3600    7.3700    7.3800    7.3900    7.4000    7.4100    7.4200    7.4300
7.4400    7.4500    7.4600    7.4700    7.4800    7.4900    7.5000    7.5100
7.5200    7.5300    7.5400    7.5500    7.5600    7.5700    7.5800    7.5900
7.6000    7.6100    7.6200    7.6300    7.6400    7.6500    7.6600    7.6700
7.6800    7.6900    7.7000    7.7100    7.7200    7.7300    7.7400    7.7500
7.7600    7.7700    7.7800    7.7900    7.8000    7.8100    7.8200    7.8300
7.8400    7.8500    7.8600    7.8700    7.8800    7.8900    7.9000    7.9100
7.9200    7.9300    7.9400    7.9500    7.9600    7.9700    7.9800    7.9900
8.0000    8.0100    8.0200    8.0300    8.0400    8.0500    8.0600    8.0700
8.0800    8.0900    8.1000    8.1100    8.1200    8.1300    8.1400    8.1500
8.1600    8.1700    8.1800    8.1900    8.2000    8.2100    8.2200    8.2300
8.2400    8.2500    8.2600    8.2700    8.2800    8.2900    8.3000    8.3100
8.3200    8.3300    8.3400    8.3500    8.3600    8.3700    8.3800    8.3900
8.4000    8.4100    8.4200    8.4300    8.4400    8.4500    8.4600    8.4700
8.4800    8.4900    8.5000    8.5100    8.5200    8.5300    8.5400    8.5500
8.5600    8.5700    8.5800    8.5900    8.6000    8.6100    8.6200    8.6300
8.6400    8.6500    8.6600    8.6700    8.6800    8.6900    8.7000    8.7100
8.7200    8.7300    8.7400    8.7500    8.7600    8.7700    8.7800    8.7900
8.8000    8.8100    8.8200    8.8300    8.8400    8.8500    8.8600    8.8700
8.8800    8.8900    8.9000    8.9100    8.9200    8.9300    8.9400    8.9500
8.9600    8.9700    8.9800    8.9900    9.0000    9.0100    9.0200    9.0300
9.0400    9.0500    9.0600    9.0700    9.0800    9.0900    9.1000    9.1100
9.1200    9.1300    9.1400    9.1500    9.1600    9.1700    9.1800    9.1900
9.2000    9.2100    9.2200    9.2300    9.2400    9.2500    9.2600    9.2700
9.2800    9.2900    9.3000    9.3100    9.3200    9.3300    9.3400    9.3500
9.3600    9.3700    9.3800    9.3900    9.4000    9.4100    9.4200    9.4300
9.4400    9.4500    9.4600    9.4700    9.4800    9.4900    9.5000    9.5100
9.5200    9.5300    9.5400    9.5500    9.5600    9.5700    9.5800    9.5900
9.6000    9.6100    9.6200    9.6300    9.6400    9.6500    9.6600    9.6700
9.6800    9.6900    9.7000    9.7100    9.7200    9.7300    9.7400    9.7500
9.7600    9.7700    9.7800    9.7900    9.8000    9.8100    9.8200    9.8300
9.8400    9.8500    9.8600    9.8700    9.8800    9.8900    9.9000    9.9100
9.9200    9.9300    9.9400    9.9500    9.9600    9.9700    9.9800    9.9900
10.0000   10.0100   10.0200   10.0300   10.0400   10.0500   10.0600   10.0700
10.0800   10.0900   10.1000   10.1100   10.1200   10.1300   10.1400   10.1500
10.1600   10.1700   10.1800   10.1900   10.2000   10.2100   10.2200   10.2300
10.2400   10.2500   10.2600   10.2700
</PP_R>
<PP_RAB type="real"  size="1028" columns="8">
0.0100    0.0100    0.0100    0.0100    0.0100    0.0100    0.0100    0.0100
0.0100    0.0100    0.0100    0.0100    0.0100    0.0100    0.0100    0.0100
0.0100    0.0100    0.0100    0.0100    0.0100    0.0100    0.0100    0.0100
0.0100    0.0100    0.0100    0.0100    0.0100    0.0100    0.0100    0.0100
0.0100    0.0100    0.0100    0.0100    0.0100    0.0100    0.0100    0.0100
0.0100    0.0100    0.0100    0.0100    0.0100    0.0100    0.0100    0.0100
0.0100    0.0100    0.0100    0.0100    0.0100    0.0100    0.0100    0.0100
0.0100    0.0100    0.0100    0.0100    0.0100    0.0100    0.0100    0.0100
0.0100    0.0100    0.0100    0.0100    0.0100    0.0100    0.0100    0.0100
0.0100    0.0100    0.0100    0.0100    0.0100    0.0100    0.0100    0.0100
0.0100    0.0100    0.0100    0.0100    0.0100    0.0100    0.0100    0.0100
0.0100    0.0100    0.0100    0.0100    0.0100    0.0100    0.0100    0.0100
0.0100    0.0100    0.0100    0.0100    0.0100    0.0100    0.0100    0.0100
0.0100    0.0100    0.0100    0.0100    0.0100    0.0100    0.0100    0.0100
0.0100    0.0100    0.0100    0.0100    0.0100    0.0100    0.0100    0.0100
0.0100    0.0100    0.0100    0.0100    0.0100    0.0100    0.0100    0.0100
0.0100    0.0100    0.0100    0.0100    0.0100    0.0100    0.0100    0.0100
0.0100    0.0100    0.0100    0.0100    0.0100    0.0100    0.0100    0.0100
0.0100    0.0100    0.0100    0.0100    0.0100    0.0100    0.0100    0.0100
0.0100    0.0100    0.0100    0.0100    0.0100    0.0100    0.0100    0.0100
0.0100    0.0100    0.0100    0.0100    0.0100    0.0100    0.0100    0.0100
0.0100    0.0100    0.0100    0.0100    0.0100    0.0100    0.0100    0.0100
0.0100    0.0100    0.0100    0.0100    0.0100    0.0100    0.0100    0.0100
0.0100    0.0100    0.0100    0.0100    0.0100    0.0100    0.0100    0.0100
0.0100    0.0100    0.0100    0.0100    0.0100    0.0100    0.0100    0.0100
0.0100    0.0100    0.0100    0.0100    0.0100    0.0100    0.0100    0.0100
0.0100    0.0100    0.0100    0.0100    0.0100    0.0100    0.0100    0.0100
0.0100    0.0100    0.0100    0.0100    0.0100    0.0100    0.0100    0.0100
0.0100    0.0100    0.0100    0.0100    0.0100    0.0100    0.0100    0.0100
0.0100    0.0100    0.0100    0.0100    0.0100    0.0100    0.0100    0.0100
0.0100    0.0100    0.0100    0.0100    0.0100    0.0100    0.0100    0.0100
0.0100    0.0100    0.0100    0.0100    0.0100    0.0100    0.0100    0.0100
0.0100    0.0100    0.0100    0.0100    0.0100    0.0100    0.0100    0.0100
0.0100    0.0100    0.0100    0.0100    0.0100    0.0100    0.0100    0.0100
0.0100    0.0100    0.0100    0.0100    0.0100    0.0100    0.0100    0.0100
0.0100    0.0100    0.0100    0.0100    0.0100    0.0100    0.0100    0.0100
0.0100    0.0100    0.0100    0.0100    0.0100    0.0100    0.0100    0.0100
0.0100    0.0100    0.0100    0.0100    0.0100    0.0100    0.0100    0.0100
0.0100    0.0100    0.0100    0.0100    0.0100    0.0100    0.0100    0.0100
0.0100    0.0100    0.0100    0.0100    0.0100    0.0100    0.0100    0.0100
0.0100    0.0100    0.0100    0.0100    0.0100    0.0100    0.0100    0.0100
0.0100    0.0100    0.0100    0.0100    0.0100    0.0100    0.0100    0.0100
0.0100    0.0100    0.0100    0.0100    0.0100    0.0100    0.0100    0.0100
0.0100    0.0100    0.0100    0.0100    0.0100    0.0100    0.0100    0.0100
0.0100    0.0100    0.0100    0.0100    0.0100    0.0100    0.0100    0.0100
0.0100    0.0100    0.0100    0.0100    0.0100    0.0100    0.0100    0.0100
0.0100    0.0100    0.0100    0.0100    0.0100    0.0100    0.0100    0.0100
0.0100    0.0100    0.0100    0.0100    0.0100    0.0100    0.0100    0.0100
0.0100    0.0100    0.0100    0.0100    0.0100    0.0100    0.0100    0.0100
0.0100    0.0100    0.0100    0.0100    0.0100    0.0100    0.0100    0.0100
0.0100    0.0100    0.0100    0.0100    0.0100    0.0100    0.0100    0.0100
0.0100    0.0100    0.0100    0.0100    0.0100    0.0100    0.0100    0.0100
0.0100    0.0100    0.0100    0.0100    0.0100    0.0100    0.0100    0.0100
0.0100    0.0100    0.0100    0.0100    0.0100    0.0100    0.0100    0.0100
0.0100    0.0100    0.0100    0.0100    0.0100    0.0100    0.0100    0.0100
0.0100    0.0100    0.0100    0.0100    0.0100    0.0100    0.0100    0.0100
0.0100    0.0100    0.0100    0.0100    0.0100    0.0100    0.0100    0.0100
0.0100    0.0100    0.0100    0.0100    0.0100    0.0100    0.0100    0.0100
0.0100    0.0100    0.0100    0.0100    0.0100    0.0100    0.0100    0.0100
0.0100    0.0100    0.0100    0.0100    0.0100    0.0100    0.0100    0.0100
0.0100    0.0100    0.0100    0.0100    0.0100    0.0100    0.0100    0.0100
0.0100    0.0100    0.0100    0.0100    0.0100    0.0100    0.0100    0.0100
0.0100    0.0100    0.0100    0.0100    0.0100    0.0100    0.0100    0.0100
0.0100    0.0100    0.0100    0.0100    0.0100    0.0100    0.0100    0.0100
0.0100    0.0100    0.0100    0.0100    0.0100    0.0100    0.0100    0.0100
0.0100    0.0100    0.0100    0.0100    0.0100    0.0100    0.0100    0.0100
0.0100    0.0100    0.0100    0.0100    0.0100    0.0100    0.0100    0.0100
0.0100    0.0100    0.0100    0.0100    0.0100    0.0100    0.0100    0.0100
0.0100    0.0100    0.0100    0.0100    0.0100    0.0100    0.0100    0.0100
0.0100    0.0100    0.0100    0.0100    0.0100    0.0100    0.0100    0.0100
0.0100    0.0100    0.0100    0.0100    0.0100    0.0100    0.0100    0.0100
0.0100    0.0100    0.0100    0.0100    0.0100    0.0100    0.0100    0.0100
0.0100    0.0100    0.0100    0.0100    0.0100    0.0100    0.0100    0.0100
0.0100    0.0100    0.0100    0.0100    0.0100    0.0100    0.0100    0.0100
0.0100    0.0100    0.0100    0.0100    0.0100    0.0100    0.0100    0.0100
0.0100    0.0100    0.0100    0.0100    0.0100    0.0100    0.0100    0.0100
0.0100    0.0100    0.0100    0.0100    0.0100    0.0100    0.0100    0.0100
0.0100    0.0100    0.0100    0.0100    0.0100    0.0100    0.0100    0.0100
0.0100    0.0100    0.0100    0.0100    0.0100    0.0100    0.0100    0.0100
0.0100    0.0100    0.0100    0.0100    0.0100    0.0100    0.0100    0.0100
0.0100    0.0100    0.0100    0.0100    0.0100    0.0100    0.0100    0.0100
0.0100    0.0100    0.0100    0.0100    0.0100    0.0100    0.0100    0.0100
0.0100    0.0100    0.0100    0.0100    0.0100    0.0100    0.0100    0.0100
0.0100    0.0100    0.0100    0.0100    0.0100    0.0100    0.0100    0.0100
0.0100    0.0100    0.0100    0.0100    0.0100    0.0100    0.0100    0.0100
0.0100    0.0100    0.0100    0.0100    0.0100    0.0100    0.0100    0.0100
0.0100    0.0100    0.0100    0.0100    0.0100    0.0100    0.0100    0.0100
0.0100    0.0100    0.0100    0.0100    0.0100    0.0100    0.0100    0.0100
0.0100    0.0100    0.0100    0.0100    0.0100    0.0100    0.0100    0.0100
0.0100    0.0100    0.0100    0.0100    0.0100    0.0100    0.0100    0.0100
0.0100    0.0100    0.0100    0.0100    0.0100    0.0100    0.0100    0.0100
0.0100    0.0100    0.0100    0.0100    0.0100    0.0100    0.0100    0.0100
0.0100    0.0100    0.0100    0.0100    0.0100    0.0100    0.0100    0.0100
0.0100    0.0100    0.0100    0.0100    0.0100    0.0100    0.0100    0.0100
0.0100    0.0100    0.0100    0.0100    0.0100    0.0100    0.0100    0.0100
0.0100    0.0100    0.0100    0.0100    0.0100    0.0100    0.0100    0.0100
0.0100    0.0100    0.0100    0.0100    0.0100    0.0100    0.0100    0.0100
0.0100    0.0100    0.0100    0.0100    0.0100    0.0100    0.0100    0.0100
0.0100    0.0100    0.0100    0.0100    0.0100    0.0100    0.0100    0.0100
0.0100    0.0100    0.0100    0.0100    0.0100    0.0100    0.0100    0.0100
0.0100    0.0100    0.0100    0.0100    0.0100    0.0100    0.0100    0.0100
0.0100    0.0100    0.0100    0.0100    0.0100    0.0100    0.0100    0.0100
0.0100    0.0100    0.0100    0.0100    0.0100    0.0100    0.0100    0.0100
0.0100    0.0100    0.0100    0.0100    0.0100    0.0100    0.0100    0.0100
0.0100    0.0100    0.0100    0.0100    0.0100    0.0100    0.0100    0.0100
0.0100    0.0100    0.0100    0.0100    0.0100    0.0100    0.0100    0.0100
0.0100    0.0100    0.0100    0.0100    0.0100    0.0100    0.0100    0.0100
0.0100    0.0100    0.0100    0.0100    0.0100    0.0100    0.0100    0.0100
0.0100    0.0100    0.0100    0.0100    0.0100    0.0100    0.0100    0.0100
0.0100    0.0100    0.0100    0.0100    0.0100    0.0100    0.0100    0.0100
0.0100    0.0100    0.0100    0.0100    0.0100    0.0100    0.0100    0.0100
0.0100    0.0100    0.0100    0.0100    0.0100    0.0100    0.0100    0.0100
0.0100    0.0100    0.0100    0.0100    0.0100    0.0100    0.0100    0.0100
0.0100    0.0100    0.0100    0.0100    0.0100    0.0100    0.0100    0.0100
0.0100    0.0100    0.0100    0.0100    0.0100    0.0100    0.0100    0.0100
0.0100    0.0100    0.0100    0.0100    0.0100    0.0100    0.0100    0.0100
0.0100    0.0100    0.0100    0.0100    0.0100    0.0100    0.0100    0.0100
0.0100    0.0100    0.0100    0.0100    0.0100    0.0100    0.0100    0.0100
0.0100    0.0100    0.0100    0.0100    0.0100    0.0100    0.0100    0.0100
0.0100    0.0100    0.0100    0.0100    0.0100    0.0100    0.0100    0.0100
0.0100    0.0100    0.0100    0.0100    0.0100    0.0100    0.0100    0.0100
0.0100    0.0100    0.0100    0.0100    0.0100    0.0100    0.0100    0.0100
0.0100    0.0100    0.0100    0.0100    0.0100    0.0100    0.0100    0.0100
0.0100    0.0100    0.0100    0.0100    0.0100    0.0100    0.0100    0.0100
0.0100    0.0100    0.0100    0.0100    0.0100    0.0100    0.0100    0.0100
0.0100    0.0100    0.0100    0.0100    0.0100    0.0100    0.0100    0.0100
0.0100    0.0100    0.0100    0.0100    0.0100    0.0100    0.0100    0.0100
0.0100    0.0100    0.0100    0.0100    0.0100    0.0100    0.0100    0.0100
0.0100    0.0100    0.0100    0.0100
</PP_RAB>
</PP_MESH>
<PP_LOCAL type="real"  size="1028" columns="4">
-2.2148988406E+01   -2.2147843657E+01   -2.2144410005E+01   -2.2138689252E+01
-2.2130684396E+01   -2.2120399620E+01   -2.2107840289E+01   -2.2093012933E+01
-2.2075925235E+01   -2.2056586011E+01   -2.2035005191E+01   -2.2011193799E+01
-2.1985163930E+01   -2.1956928722E+01   -2.1926502330E+01   -2.1893899903E+01
-2.1859137547E+01   -2.1822232301E+01   -2.1783202106E+01   -2.1742065768E+01
-2.1698842935E+01   -2.1653554055E+01   -2.1606220352E+01   -2.1556863788E+01
-2.1505507028E+01   -2.1452173416E+01   -2.1396886930E+01   -2.1339672158E+01
-2.1280554258E+01   -2.1219558931E+01   -2.1156712378E+01   -2.1092041277E+01
-2.1025572741E+01   -2.0957334286E+01   -2.0887353797E+01   -2.0815659495E+01
-2.0742279900E+01   -2.0667243795E+01   -2.0590580194E+01   -2.0512318303E+01
-2.0432487489E+01   -2.0351117238E+01   -2.0268237127E+01   -2.0183876781E+01
-2.0098065844E+01   -2.0010833941E+01   -1.9922210645E+01   -1.9832225442E+01
-1.9740907701E+01   -1.9648286641E+01   -1.9554391302E+01   -1.9459250518E+01
-1.9362892887E+01   -1.9265346752E+01   -1.9166640175E+01   -1.9066800923E+01
-1.8965856447E+01   -1.8863833870E+01   -1.8760759980E+01   -1.8656661220E+01
-1.8551563688E+01   -1.8445493136E+01   -1.8338474976E+01   -1.8230534291E+01
-1.8121695847E+01   -1.8011984117E+01   -1.7901423306E+01   -1.7790037388E+01
-1.7677850147E+01   -1.7564885240E+01   -1.7451166258E+01   -1.7336716813E+01
-1.7221560643E+01   -1.7105721731E+01   -1.6989224452E+01   -1.6872093743E+01
-1.6754355298E+01   -1.6636035788E+01   -1.6517163109E+01   -1.6397766649E+01
-1.6277877569E+01   -1.6157529099E+01   -1.6036756827E+01   -1.5915598984E+01
-1.5794096691E+01   -1.5672294182E+01   -1.5550238959E+01   -1.5427981881E+01
-1.5305577176E+01   -1.5183082354E+01   -1.5060558027E+01   -1.4938067626E+01
-1.4815677024E+01   -1.4693454076E+01   -1.4571468083E+01   -1.4449789210E+01
-1.4328487862E+01   -1.4207634070E+01   -1.4087296878E+01   -1.3967543776E+01
-1.3848440189E+01   -1.3730049038E+01   -1.3612430379E+01   -1.3495641130E+01
-1.3379734886E+01   -1.3264761805E+01   -1.3150768575E+01   -1.3037798440E+01
-1.2925891269E+01   -1.2815083668E+01   -1.2705409116E+01   -1.2596898106E+01
-1.2489578298E+01   -1.2383474662E+01   -1.2278609608E+01   -1.2175003102E+01
-1.2072672764E+01   -1.1971633937E+01   -1.1871899742E+01   -1.1773481100E+01
-1.1676386739E+01   -1.1580623177E+01   -1.1486194682E+01   -1.1393103214E+01
-1.1301348348E+01   -1.1210927185E+01   -1.1121834242E+01   -1.1034061339E+01
-1.0947597459E+01   -1.0862428672E+01   -1.0778537875E+01   -1.0695904537E+01
-1.0614506587E+01   -1.0534321521E+01   -1.0455327602E+01   -1.0377501502E+01
-1.0300817537E+01   -1.0225248509E+01   -1.0150768408E+01   -1.0077355141E+01
-1.0004989140E+01   -9.9336522052E+00   -9.8633251622E+00   -9.7939885037E+00
-9.7256231463E+00   -9.6582103947E+00   -9.5917320064E+00   -9.5261698040E+00
-9.4615057538E+00   -9.3977221298E+00   -9.3348014452E+00   -9.2727264638E+00
-9.2114801038E+00   -9.1510455565E+00   -9.0914063925E+00   -9.0325470383E+00
-8.9744536148E+00   -8.9171135221E+00   -8.8605152696E+00   -8.8046472185E+00
-8.7494963518E+00   -8.6950489603E+00   -8.6412908938E+00   -8.5882083030E+00
-8.5357882010E+00   -8.4840179034E+00   -8.4328848817E+00   -8.3823767956E+00
-8.3324814337E+00   -8.2831868653E+00   -8.2344814872E+00   -8.1863539417E+00
-8.1387931078E+00   -8.0917881321E+00   -8.0453284310E+00   -7.9994036856E+00
-7.9540038424E+00   -7.9091191135E+00   -7.8647399750E+00   -7.8208571654E+00
-7.7774616827E+00   -7.7345447812E+00   -7.6920979677E+00   -7.6501129965E+00
-7.6085818649E+00   -7.5674968072E+00   -7.5268502887E+00   -7.4866349992E+00
-7.4468438460E+00   -7.4074699467E+00   -7.3685066215E+00   -7.3299473856E+00
-7.2917859412E+00   -7.2540161691E+00   -7.2166321210E+00   -7.1796280107E+00
-7.1429982064E+00   -7.1067372222E+00   -7.0708397104E+00   -7.0353004532E+00
-7.0001143555E+00   -6.9652764371E+00   -6.9307818257E+00   -6.8966257500E+00
-6.8628035332E+00   -6.8293105869E+00   -6.7961424053E+00   -6.7632945597E+00
-6.7307626939E+00   -6.6985425192E+00   -6.6666298110E+00   -6.6350204043E+00
-6.6037101914E+00   -6.5726951185E+00   -6.5419711835E+00   -6.5115344345E+00
-6.4813809675E+00   -6.4515069258E+00   -6.4219084991E+00   -6.3925819228E+00
-6.3635234781E+00   -6.3347294918E+00   -6.3061963369E+00   -6.2779204329E+00
-6.2498982464E+00   -6.2221262925E+00   -6.1946011349E+00   -6.1673193878E+00
-6.1402777161E+00   -6.1134728373E+00   -6.0869015219E+00   -6.0605605945E+00
-6.0344469352E+00   -6.0085574797E+00   -5.9828892204E+00   -5.9574392071E+00
-5.9322045471E+00   -5.9071824052E+00   -5.8823700046E+00   -5.8577646257E+00
-5.8333636066E+00   -5.8091643421E+00   -5.7851642832E+00   -5.7613609360E+00
-5.7377518611E+00   -5.7143346715E+00   -5.6911070321E+00   -5.6680666574E+00
-5.6452113106E+00   -5.6225388009E+00   -5.6000469825E+00   -5.5777337520E+00
-5.5555970470E+00   -5.5336348435E+00   -5.5118451542E+00   -5.4902260266E+00
-5.4687755406E+00   -5.4474918071E+00   -5.4263729658E+00   -5.4054171834E+00
-5.3846226523E+00   -5.3639875886E+00   -5.3435102312E+00   -5.3231888398E+00
-5.3030216946E+00   -5.2830070947E+00   -5.2631433574E+00   -5.2434288179E+00
-5.2238618281E+00   -5.2044407567E+00   -5.1851639888E+00   -5.1660299259E+00
-5.1470369856E+00   -5.1281836019E+00   -5.1094682255E+00   -5.0908893240E+00
-5.0724453821E+00   -5.0541349024E+00   -5.0359564052E+00   -5.0179084299E+00
-4.9999895344E+00   -4.9821982964E+00   -4.9645333138E+00   -4.9469932048E+00
-4.9295766091E+00   -4.9122821850E+00   -4.8951086126E+00   -4.8780545948E+00
-4.8611188566E+00   -4.8443001438E+00   -4.8275972270E+00   -4.8110088814E+00
-4.7945339510E+00   -4.7781712820E+00   -4.7619197460E+00   -4.7457781862E+00
-4.7297453940E+00   -4.7138202050E+00   -4.6980014633E+00   -4.6822881228E+00
-4.6666791736E+00   -4.6511736376E+00   -4.6357705983E+00   -4.6204692491E+00
-4.6052687571E+00   -4.5901683383E+00   -4.5751670175E+00   -4.5602637748E+00
-4.5454575842E+00   -4.5307473867E+00   -4.5161322004E+00   -4.5016110340E+00
-4.4871829096E+00   -4.4728468962E+00   -4.4586021384E+00   -4.4444477871E+00
-4.4303830334E+00   -4.4164070346E+00   -4.4025189437E+00   -4.3887179316E+00
-4.3750031692E+00   -4.3613738556E+00   -4.3478291960E+00   -4.3343684040E+00
-4.3209907034E+00   -4.3076953269E+00   -4.2944815169E+00   -4.2813485251E+00
-4.2682956126E+00   -4.2553220490E+00   -4.2424271130E+00   -4.2296100919E+00
-4.2168702818E+00   -4.2042069869E+00   -4.1916195201E+00   -4.1791072024E+00
-4.1666693626E+00   -4.1543053380E+00   -4.1420144731E+00   -4.1297961208E+00
-4.1176496411E+00   -4.1055744017E+00   -4.0935697777E+00   -4.0816351516E+00
-4.0697699128E+00   -4.0579734580E+00   -4.0462451908E+00   -4.0345845218E+00
-4.0229908680E+00   -4.0114636536E+00   -4.0000023090E+00   -3.9886062713E+00
-3.9772749838E+00   -3.9660078962E+00   -3.9548044646E+00   -3.9436641509E+00
-3.9325864234E+00   -3.9215707559E+00   -3.9106166286E+00   -3.8997235271E+00
-3.8888909430E+00   -3.8781183732E+00   -3.8674053204E+00   -3.8567512928E+00
-3.8461558039E+00   -3.8356183726E+00   -3.8251385229E+00   -3.8147157843E+00
-3.8043496910E+00   -3.7940397826E+00   -3.7837856036E+00   -3.7735867033E+00
-3.7634426359E+00   -3.7533529603E+00   -3.7433172404E+00   -3.7333350444E+00
-3.7234059453E+00   -3.7135295207E+00   -3.7037053523E+00   -3.6939330267E+00
-3.6842121345E+00   -3.6745422707E+00   -3.6649230347E+00   -3.6553540297E+00
-3.6458348635E+00   -3.6363651476E+00   -3.6269444978E+00   -3.6175725337E+00
-3.6082488788E+00   -3.5989731605E+00   -3.5897450102E+00   -3.5805640629E+00
-3.5714299573E+00   -3.5623423359E+00   -3.5533008447E+00   -3.5443051333E+00
-3.5353548550E+00   -3.5264496665E+00   -3.5175892277E+00   -3.5087732024E+00
-3.5000012574E+00   -3.4912730629E+00   -3.4825882924E+00   -3.4739466227E+00
-3.4653477337E+00   -3.4567913086E+00   -3.4482770334E+00   -3.4398045977E+00