<UPF version="2.0.1">
<PP_INFO>

This pseudopotential file has been produced using the code
ONCVPSP  (Optimized Norm-Conservinng Vanderbilt PSeudopotential)
fully-relativistic version 3.3.0 08/16/2017 by D. R. Hamann
The code is available through a link at URL www.mat-simresearch.com.
Documentation with the package provides a full discription of the
input data below.


While it is not required under the terms of the GNU GPL, it is
suggested that you cite D. R. Hamann, Phys. Rev. B 88, 085117 (2013)
in any publication using these pseudopotentials.

<PP_INPUTFILE>
# ATOM AND REFERENCE CONFIGURATION
# atsym  z   nc   nv     iexc    psfile
F  9.00    1    2 -116133      upf
#
#   n    l    f        energy (Ha)
1    0    2.00
2    0    2.00
2    1    5.00
#
# PSEUDOPOTENTIAL AND OPTIMIZATION
# lmax
2
#
#   l,   rc,     ep,   ncon, nbas, qcut
0   1.30000  -1.09217    4    8   8.60000
1   1.45000  -0.40534    4    8   9.00000
2   1.60000   0.15000    4    8   5.80000
#
# LOCAL POTENTIAL
# lloc, lpopt,  rc(5),   dvloc0
4    5   0.95000      0.00000
#
# VANDERBILT-KLEINMAN-BYLANDER PROJECTORs
# l, nproj, debl
0    2   1.50000
1    2   1.49922
2    1   2.00000
#
# MODEL CORE CHARGE
# icmod, fcfact, rcfact
3   2.50000   1.85000
#
# LOG DERIVATIVE ANALYSIS
# epsh1, epsh2, depsh
-12.00   12.00    0.02
#
# OUTPUT GRID
# rlmax, drl
6.00    0.01
#
# TEST CONFIGURATIONS
# ncnf
0
# nvcnf
#   n    l    f
</PP_INPUTFILE>
</PP_INFO>
<!--                               -->
<!-- END OF HUMAN READABLE SECTION -->
<!--                               -->
<PP_HEADER
generated="Generated using ONCVPSP code by D. R. Hamann"
author="anonymous"
date="180509"
comment=""
element="F "
pseudo_type="NC"
relativistic="full"
is_ultrasoft="F"
is_paw="F"
is_coulomb="F"
has_so="T"
has_wfc="F"
has_gipaw="F"
core_correction="T"
functional="PBESOL"
z_valence="    7.00"
total_psenergy="  -4.76422589093E+01"
rho_cutoff="   8.31000000000E+00"
l_max="2"
l_local="-1"
mesh_size="   832"
number_of_wfc="3"
number_of_proj="8"/>
<PP_MESH>
<PP_R type="real"  size=" 832" columns="8">
0.0000    0.0100    0.0200    0.0300    0.0400    0.0500    0.0600    0.0700
0.0800    0.0900    0.1000    0.1100    0.1200    0.1300    0.1400    0.1500
0.1600    0.1700    0.1800    0.1900    0.2000    0.2100    0.2200    0.2300
0.2400    0.2500    0.2600    0.2700    0.2800    0.2900    0.3000    0.3100
0.3200    0.3300    0.3400    0.3500    0.3600    0.3700    0.3800    0.3900
0.4000    0.4100    0.4200    0.4300    0.4400    0.4500    0.4600    0.4700
0.4800    0.4900    0.5000    0.5100    0.5200    0.5300    0.5400    0.5500
0.5600    0.5700    0.5800    0.5900    0.6000    0.6100    0.6200    0.6300
0.6400    0.6500    0.6600    0.6700    0.6800    0.6900    0.7000    0.7100
0.7200    0.7300    0.7400    0.7500    0.7600    0.7700    0.7800    0.7900
0.8000    0.8100    0.8200    0.8300    0.8400    0.8500    0.8600    0.8700
0.8800    0.8900    0.9000    0.9100    0.9200    0.9300    0.9400    0.9500
0.9600    0.9700    0.9800    0.9900    1.0000    1.0100    1.0200    1.0300
1.0400    1.0500    1.0600    1.0700    1.0800    1.0900    1.1000    1.1100
1.1200    1.1300    1.1400    1.1500    1.1600    1.1700    1.1800    1.1900
1.2000    1.2100    1.2200    1.2300    1.2400    1.2500    1.2600    1.2700
1.2800    1.2900    1.3000    1.3100    1.3200    1.3300    1.3400    1.3500
1.3600    1.3700    1.3800    1.3900    1.4000    1.4100    1.4200    1.4300
1.4400    1.4500    1.4600    1.4700    1.4800    1.4900    1.5000    1.5100
1.5200    1.5300    1.5400    1.5500    1.5600    1.5700    1.5800    1.5900
1.6000    1.6100    1.6200    1.6300    1.6400    1.6500    1.6600    1.6700
1.6800    1.6900    1.7000    1.7100    1.7200    1.7300    1.7400    1.7500
1.7600    1.7700    1.7800    1.7900    1.8000    1.8100    1.8200    1.8300
1.8400    1.8500    1.8600    1.8700    1.8800    1.8900    1.9000    1.9100
1.9200    1.9300    1.9400    1.9500    1.9600    1.9700    1.9800    1.9900
2.0000    2.0100    2.0200    2.0300    2.0400    2.0500    2.0600    2.0700
2.0800    2.0900    2.1000    2.1100    2.1200    2.1300    2.1400    2.1500
2.1600    2.1700    2.1800    2.1900    2.2000    2.2100    2.2200    2.2300
2.2400    2.2500    2.2600    2.2700    2.2800    2.2900    2.3000    2.3100
2.3200    2.3300    2.3400    2.3500    2.3600    2.3700    2.3800    2.3900
2.4000    2.4100    2.4200    2.4300    2.4400    2.4500    2.4600    2.4700
2.4800    2.4900    2.5000    2.5100    2.5200    2.5300    2.5400    2.5500
2.5600    2.5700    2.5800    2.5900    2.6000    2.6100    2.6200    2.6300
2.6400    2.6500    2.6600    2.6700    2.6800    2.6900    2.7000    2.7100
2.7200    2.7300    2.7400    2.7500    2.7600    2.7700    2.7800    2.7900
2.8000    2.8100    2.8200    2.8300    2.8400    2.8500    2.8600    2.8700
2.8800    2.8900    2.9000    2.9100    2.9200    2.9300    2.9400    2.9500
2.9600    2.9700    2.9800    2.9900    3.0000    3.0100    3.0200    3.0300
3.0400    3.0500    3.0600    3.0700    3.0800    3.0900    3.1000    3.1100
3.1200    3.1300    3.1400    3.1500    3.1600    3.1700    3.1800    3.1900
3.2000    3.2100    3.2200    3.2300    3.2400    3.2500    3.2600    3.2700
3.2800    3.2900    3.3000    3.3100    3.3200    3.3300    3.3400    3.3500
3.3600    3.3700    3.3800    3.3900    3.4000    3.4100    3.4200    3.4300
3.4400    3.4500    3.4600    3.4700    3.4800    3.4900    3.5000    3.5100
3.5200    3.5300    3.5400    3.5500    3.5600    3.5700    3.5800    3.5900
3.6000    3.6100    3.6200    3.6300    3.6400    3.6500    3.6600    3.6700
3.6800    3.6900    3.7000    3.7100    3.7200    3.7300    3.7400    3.7500
3.7600    3.7700    3.7800    3.7900    3.8000    3.8100    3.8200    3.8300
3.8400    3.8500    3.8600    3.8700    3.8800    3.8900    3.9000    3.9100
3.9200    3.9300    3.9400    3.9500    3.9600    3.9700    3.9800    3.9900
4.0000    4.0100    4.0200    4.0300    4.0400    4.0500    4.0600    4.0700
4.0800    4.0900    4.1000    4.1100    4.1200    4.1300    4.1400    4.1500
4.1600    4.1700    4.1800    4.1900    4.2000    4.2100    4.2200    4.2300
4.2400    4.2500    4.2600    4.2700    4.2800    4.2900    4.3000    4.3100
4.3200    4.3300    4.3400    4.3500    4.3600    4.3700    4.3800    4.3900
4.4000    4.4100    4.4200    4.4300    4.4400    4.4500    4.4600    4.4700
4.4800    4.4900    4.5000    4.5100    4.5200    4.5300    4.5400    4.5500
4.5600    4.5700    4.5800    4.5900    4.6000    4.6100    4.6200    4.6300
4.6400    4.6500    4.6600    4.6700    4.6800    4.6900    4.7000    4.7100
4.7200    4.7300    4.7400    4.7500    4.7600    4.7700    4.7800    4.7900
4.8000    4.8100    4.8200    4.8300    4.8400    4.8500    4.8600    4.8700
4.8800    4.8900    4.9000    4.9100    4.9200    4.9300    4.9400    4.9500
4.9600    4.9700    4.9800    4.9900    5.0000    5.0100    5.0200    5.0300
5.0400    5.0500    5.0600    5.0700    5.0800    5.0900    5.1000    5.1100
5.1200    5.1300    5.1400    5.1500    5.1600    5.1700    5.1800    5.1900
5.2000    5.2100    5.2200    5.2300    5.2400    5.2500    5.2600    5.2700
5.2800    5.2900    5.3000    5.3100    5.3200    5.3300    5.3400    5.3500
5.3600    5.3700    5.3800    5.3900    5.4000    5.4100    5.4200    5.4300
5.4400    5.4500    5.4600    5.4700    5.4800    5.4900    5.5000    5.5100
5.5200    5.5300    5.5400    5.5500    5.5600    5.5700    5.5800    5.5900
5.6000    5.6100    5.6200    5.6300    5.6400    5.6500    5.6600    5.6700
5.6800    5.6900    5.7000    5.7100    5.7200    5.7300    5.7400    5.7500
5.7600    5.7700    5.7800    5.7900    5.8000    5.8100    5.8200    5.8300
5.8400    5.8500    5.8600    5.8700    5.8800    5.8900    5.9000    5.9100
5.9200    5.9300    5.9400    5.9500    5.9600    5.9700    5.9800    5.9900
6.0000    6.0100    6.0200    6.0300    6.0400    6.0500    6.0600    6.0700
6.0800    6.0900    6.1000    6.1100    6.1200    6.1300    6.1400    6.1500
6.1600    6.1700    6.1800    6.1900    6.2000    6.2100    6.2200    6.2300
6.2400    6.2500    6.2600    6.2700    6.2800    6.2900    6.3000    6.3100
6.3200    6.3300    6.3400    6.3500    6.3600    6.3700    6.3800    6.3900
6.4000    6.4100    6.4200    6.4300    6.4400    6.4500    6.4600    6.4700
6.4800    6.4900    6.5000    6.5100    6.5200    6.5300    6.5400    6.5500
6.5600    6.5700    6.5800    6.5900    6.6000    6.6100    6.6200    6.6300
6.6400    6.6500    6.6600    6.6700    6.6800    6.6900    6.7000    6.7100
6.7200    6.7300    6.7400    6.7500    6.7600    6.7700    6.7800    6.7900
6.8000    6.8100    6.8200    6.8300    6.8400    6.8500    6.8600    6.8700
6.8800    6.8900    6.9000    6.9100    6.9200    6.9300    6.9400    6.9500
6.9600    6.9700    6.9800    6.9900    7.0000    7.0100    7.0200    7.0300
7.0400    7.0500    7.0600    7.0700    7.0800    7.0900    7.1000    7.1100
7.1200    7.1300    7.1400    7.1500    7.1600    7.1700    7.1800    7.1900
7.2000    7.2100    7.2200    7.2300    7.2400    7.2500    7.2600    7.2700
7.2800    7.2900    7.3000    7.3100    7.3200    7.3300    7.3400    7.3500
7.3600    7.3700    7.3800    7.3900    7.4000    7.4100    7.4200    7.4300
7.4400    7.4500    7.4600    7.4700    7.4800    7.4900    7.5000    7.5100
7.5200    7.5300    7.5400    7.5500    7.5600    7.5700    7.5800    7.5900
7.6000    7.6100    7.6200    7.6300    7.6400    7.6500    7.6600    7.6700
7.6800    7.6900    7.7000    7.7100    7.7200    7.7300    7.7400    7.7500
7.7600    7.7700    7.7800    7.7900    7.8000    7.8100    7.8200    7.8300
7.8400    7.8500    7.8600    7.8700    7.8800    7.8900    7.9000    7.9100
7.9200    7.9300    7.9400    7.9500    7.9600    7.9700    7.9800    7.9900
8.0000    8.0100    8.0200    8.0300    8.0400    8.0500    8.0600    8.0700
8.0800    8.0900    8.1000    8.1100    8.1200    8.1300    8.1400    8.1500
8.1600    8.1700    8.1800    8.1900    8.2000    8.2100    8.2200    8.2300
8.2400    8.2500    8.2600    8.2700    8.2800    8.2900    8.3000    8.3100
</PP_R>
<PP_RAB type="real"  size=" 832" columns="8">
0.0100    0.0100    0.0100    0.0100    0.0100    0.0100    0.0100    0.0100
0.0100    0.0100    0.0100    0.0100    0.0100    0.0100    0.0100    0.0100
0.0100    0.0100    0.0100    0.0100    0.0100    0.0100    0.0100    0.0100
0.0100    0.0100    0.0100    0.0100    0.0100    0.0100    0.0100    0.0100
0.0100    0.0100    0.0100    0.0100    0.0100    0.0100    0.0100    0.0100
0.0100    0.0100    0.0100    0.0100    0.0100    0.0100    0.0100    0.0100
0.0100    0.0100    0.0100    0.0100    0.0100    0.0100    0.0100    0.0100
0.0100    0.0100    0.0100    0.0100    0.0100    0.0100    0.0100    0.0100
0.0100    0.0100    0.0100    0.0100    0.0100    0.0100    0.0100    0.0100
0.0100    0.0100    0.0100    0.0100    0.0100    0.0100    0.0100    0.0100
0.0100    0.0100    0.0100    0.0100    0.0100    0.0100    0.0100    0.0100
0.0100    0.0100    0.0100    0.0100    0.0100    0.0100    0.0100    0.0100
0.0100    0.0100    0.0100    0.0100    0.0100    0.0100    0.0100    0.0100
0.0100    0.0100    0.0100    0.0100    0.0100    0.0100    0.0100    0.0100
0.0100    0.0100    0.0100    0.0100    0.0100    0.0100    0.0100    0.0100
0.0100    0.0100    0.0100    0.0100    0.0100    0.0100    0.0100    0.0100
0.0100    0.0100    0.0100    0.0100    0.0100    0.0100    0.0100    0.0100
0.0100    0.0100    0.0100    0.0100    0.0100    0.0100    0.0100    0.0100
0.0100    0.0100    0.0100    0.0100    0.0100    0.0100    0.0100    0.0100
0.0100    0.0100    0.0100    0.0100    0.0100    0.0100    0.0100    0.0100
0.0100    0.0100    0.0100    0.0100    0.0100    0.0100    0.0100    0.0100
0.0100    0.0100    0.0100    0.0100    0.0100    0.0100    0.0100    0.0100
0.0100    0.0100    0.0100    0.0100    0.0100    0.0100    0.0100    0.0100
0.0100    0.0100    0.0100    0.0100    0.0100    0.0100    0.0100    0.0100
0.0100    0.0100    0.0100    0.0100    0.0100    0.0100    0.0100    0.0100
0.0100    0.0100    0.0100    0.0100    0.0100    0.0100    0.0100    0.0100
0.0100    0.0100    0.0100    0.0100    0.0100    0.0100    0.0100    0.0100
0.0100    0.0100    0.0100    0.0100    0.0100    0.0100    0.0100    0.0100
0.0100    0.0100    0.0100    0.0100    0.0100    0.0100    0.0100    0.0100
0.0100    0.0100    0.0100    0.0100    0.0100    0.0100    0.0100    0.0100
0.0100    0.0100    0.0100    0.0100    0.0100    0.0100    0.0100    0.0100
0.0100    0.0100    0.0100    0.0100    0.0100    0.0100    0.0100    0.0100
0.0100    0.0100    0.0100    0.0100    0.0100    0.0100    0.0100    0.0100
0.0100    0.0100    0.0100    0.0100    0.0100    0.0100    0.0100    0.0100
0.0100    0.0100    0.0100    0.0100    0.0100    0.0100    0.0100    0.0100
0.0100    0.0100    0.0100    0.0100    0.0100    0.0100    0.0100    0.0100
0.0100    0.0100    0.0100    0.0100    0.0100    0.0100    0.0100    0.0100
0.0100    0.0100    0.0100    0.0100    0.0100    0.0100    0.0100    0.0100
0.0100    0.0100    0.0100    0.0100    0.0100    0.0100    0.0100    0.0100
0.0100    0.0100    0.0100    0.0100    0.0100    0.0100    0.0100    0.0100
0.0100    0.0100    0.0100    0.0100    0.0100    0.0100    0.0100    0.0100
0.0100    0.0100    0.0100    0.0100    0.0100    0.0100    0.0100    0.0100
0.0100    0.0100    0.0100    0.0100    0.0100    0.0100    0.0100    0.0100
0.0100    0.0100    0.0100    0.0100    0.0100    0.0100    0.0100    0.0100
0.0100    0.0100    0.0100    0.0100    0.0100    0.0100    0.0100    0.0100
0.0100    0.0100    0.0100    0.0100    0.0100    0.0100    0.0100    0.0100
0.0100    0.0100    0.0100    0.0100    0.0100    0.0100    0.0100    0.0100
0.0100    0.0100    0.0100    0.0100    0.0100    0.0100    0.0100    0.0100
0.0100    0.0100    0.0100    0.0100    0.0100    0.0100    0.0100    0.0100
0.0100    0.0100    0.0100    0.0100    0.0100    0.0100    0.0100    0.0100
0.0100    0.0100    0.0100    0.0100    0.0100    0.0100    0.0100    0.0100
0.0100    0.0100    0.0100    0.0100    0.0100    0.0100    0.0100    0.0100
0.0100    0.0100    0.0100    0.0100    0.0100    0.0100    0.0100    0.0100
0.0100    0.0100    0.0100    0.0100    0.0100    0.0100    0.0100    0.0100
0.0100    0.0100    0.0100    0.0100    0.0100    0.0100    0.0100    0.0100
0.0100    0.0100    0.0100    0.0100    0.0100    0.0100    0.0100    0.0100
0.0100    0.0100    0.0100    0.0100    0.0100    0.0100    0.0100    0.0100
0.0100    0.0100    0.0100    0.0100    0.0100    0.0100    0.0100    0.0100
0.0100    0.0100    0.0100    0.0100    0.0100    0.0100    0.0100    0.0100
0.0100    0.0100    0.0100    0.0100    0.0100    0.0100    0.0100    0.0100
0.0100    0.0100    0.0100    0.0100    0.0100    0.0100    0.0100    0.0100
0.0100    0.0100    0.0100    0.0100    0.0100    0.0100    0.0100    0.0100
0.0100    0.0100    0.0100    0.0100    0.0100    0.0100    0.0100    0.0100
0.0100    0.0100    0.0100    0.0100    0.0100    0.0100    0.0100    0.0100
0.0100    0.0100    0.0100    0.0100    0.0100    0.0100    0.0100    0.0100
0.0100    0.0100    0.0100    0.0100    0.0100    0.0100    0.0100    0.0100
0.0100    0.0100    0.0100    0.0100    0.0100    0.0100    0.0100    0.0100
0.0100    0.0100    0.0100    0.0100    0.0100    0.0100    0.0100    0.0100
0.0100    0.0100    0.0100    0.0100    0.0100    0.0100    0.0100    0.0100
0.0100    0.0100    0.0100    0.0100    0.0100    0.0100    0.0100    0.0100
0.0100    0.0100    0.0100    0.0100    0.0100    0.0100    0.0100    0.0100
0.0100    0.0100    0.0100    0.0100    0.0100    0.0100    0.0100    0.0100
0.0100    0.0100    0.0100    0.0100    0.0100    0.0100    0.0100    0.0100
0.0100    0.0100    0.0100    0.0100    0.0100    0.0100    0.0100    0.0100
0.0100    0.0100    0.0100    0.0100    0.0100    0.0100    0.0100    0.0100
0.0100    0.0100    0.0100    0.0100    0.0100    0.0100    0.0100    0.0100
0.0100    0.0100    0.0100    0.0100    0.0100    0.0100    0.0100    0.0100
0.0100    0.0100    0.0100    0.0100    0.0100    0.0100    0.0100    0.0100
0.0100    0.0100    0.0100    0.0100    0.0100    0.0100    0.0100    0.0100
0.0100    0.0100    0.0100    0.0100    0.0100    0.0100    0.0100    0.0100
0.0100    0.0100    0.0100    0.0100    0.0100    0.0100    0.0100    0.0100
0.0100    0.0100    0.0100    0.0100    0.0100    0.0100    0.0100    0.0100
0.0100    0.0100    0.0100    0.0100    0.0100    0.0100    0.0100    0.0100
0.0100    0.0100    0.0100    0.0100    0.0100    0.0100    0.0100    0.0100
0.0100    0.0100    0.0100    0.0100    0.0100    0.0100    0.0100    0.0100
0.0100    0.0100    0.0100    0.0100    0.0100    0.0100    0.0100    0.0100
0.0100    0.0100    0.0100    0.0100    0.0100    0.0100    0.0100    0.0100
0.0100    0.0100    0.0100    0.0100    0.0100    0.0100    0.0100    0.0100
0.0100    0.0100    0.0100    0.0100    0.0100    0.0100    0.0100    0.0100
0.0100    0.0100    0.0100    0.0100    0.0100    0.0100    0.0100    0.0100
0.0100    0.0100    0.0100    0.0100    0.0100    0.0100    0.0100    0.0100
0.0100    0.0100    0.0100    0.0100    0.0100    0.0100    0.0100    0.0100
0.0100    0.0100    0.0100    0.0100    0.0100    0.0100    0.0100    0.0100
0.0100    0.0100    0.0100    0.0100    0.0100    0.0100    0.0100    0.0100
0.0100    0.0100    0.0100    0.0100    0.0100    0.0100    0.0100    0.0100
0.0100    0.0100    0.0100    0.0100    0.0100    0.0100    0.0100    0.0100
0.0100    0.0100    0.0100    0.0100    0.0100    0.0100    0.0100    0.0100
0.0100    0.0100    0.0100    0.0100    0.0100    0.0100    0.0100    0.0100
0.0100    0.0100    0.0100    0.0100    0.0100    0.0100    0.0100    0.0100
0.0100    0.0100    0.0100    0.0100    0.0100    0.0100    0.0100    0.0100
0.0100    0.0100    0.0100    0.0100    0.0100    0.0100    0.0100    0.0100
0.0100    0.0100    0.0100    0.0100    0.0100    0.0100    0.0100    0.0100
0.0100    0.0100    0.0100    0.0100    0.0100    0.0100    0.0100    0.0100
0.0100    0.0100    0.0100    0.0100    0.0100    0.0100    0.0100    0.0100
</PP_RAB>
</PP_MESH>
<PP_LOCAL type="real"  size=" 832" columns="4">
-3.0435973963E+01   -3.0433253527E+01   -3.0425093938E+01   -3.0411500435E+01
-3.0392481610E+01   -3.0368049228E+01   -3.0338217982E+01   -3.0303005202E+01
-3.0262430523E+01   -3.0216515540E+01   -3.0165283458E+01   -3.0108758754E+01
-3.0046966865E+01   -2.9979933923E+01   -2.9907686530E+01   -2.9830251598E+01
-2.9747656254E+01   -2.9659927806E+01   -2.9567093780E+01   -2.9469182025E+01
-2.9366220879E+01   -2.9258239388E+01   -2.9145267588E+01   -2.9027336821E+01
-2.8904480102E+01   -2.8776732504E+01   -2.8644131583E+01   -2.8506717805E+01
-2.8364534992E+01   -2.8217630772E+01   -2.8066057021E+01   -2.7909870299E+01
-2.7749132268E+01   -2.7583910092E+01   -2.7414276806E+01   -2.7240311655E+01
-2.7062100392E+01   -2.6879735542E+01   -2.6693316603E+01   -2.6502950214E+01
-2.6308750252E+01   -2.6110837888E+01   -2.5909341566E+01   -2.5704396941E+01
-2.5496146746E+01   -2.5284740607E+01   -2.5070334802E+01   -2.4853091973E+01
-2.4633180785E+01   -2.4410775555E+01   -2.4186055841E+01   -2.3959206002E+01
-2.3730414742E+01   -2.3499874635E+01   -2.3267781636E+01   -2.3034334596E+01
-2.2799734765E+01   -2.2564185296E+01   -2.2327890759E+01   -2.2091056642E+01
-2.1853888868E+01   -2.1616593301E+01   -2.1379375259E+01   -2.1142439013E+01
-2.0905987296E+01   -2.0670220787E+01   -2.0435337607E+01   -2.0201532787E+01
-1.9968997746E+01   -1.9737919748E+01   -1.9508481361E+01   -1.9280859912E+01
-1.9055226941E+01   -1.8831747658E+01   -1.8610580410E+01   -1.8391876156E+01
-1.8175777954E+01   -1.7962420476E+01   -1.7751929531E+01   -1.7544421621E+01
-1.7340003517E+01   -1.7138771864E+01   -1.6940812810E+01   -1.6746201665E+01
-1.6555002586E+01   -1.6367268283E+01   -1.6183039756E+01   -1.6002346047E+01
-1.5825204014E+01   -1.5651618120E+01   -1.5481580242E+01   -1.5315069486E+01
-1.5152052011E+01   -1.4992480858E+01   -1.4836295790E+01   -1.4683423174E+01
-1.4533775634E+01   -1.4387252782E+01   -1.4243748839E+01   -1.4103160399E+01
-1.3965387744E+01   -1.3830334485E+01   -1.3697907637E+01   -1.3568017596E+01
-1.3440578112E+01   -1.3315506261E+01   -1.3192722420E+01   -1.3072150228E+01
-1.2953716550E+01   -1.2837351433E+01   -1.2722988053E+01   -1.2610562668E+01
-1.2500014555E+01   -1.2391285952E+01   -1.2284321987E+01   -1.2179070616E+01
-1.2075482547E+01   -1.1973511164E+01   -1.1873112459E+01   -1.1774244946E+01
-1.1676869584E+01   -1.1580949699E+01   -1.1486450896E+01   -1.1393340980E+01
-1.1301589858E+01   -1.1211169478E+01   -1.1122053720E+01   -1.1034218289E+01
-1.0947640300E+01   -1.0862298571E+01   -1.0778174205E+01   -1.0695254098E+01
-1.0613530355E+01   -1.0532997667E+01   -1.0453647817E+01   -1.0375468223E+01
-1.0298445376E+01   -1.0222566130E+01   -1.0147818791E+01   -1.0074191401E+01
-1.0001671721E+01   -9.9302471734E+00   -9.8599058352E+00   -9.7906355492E+00
-9.7224228566E+00   -9.6552469935E+00   -9.5890689040E+00   -9.5238395730E+00
-9.4595069148E+00   -9.3960329007E+00   -9.3333978237E+00   -9.2715876380E+00
-9.2105903803E+00   -9.1503901603E+00   -9.0909698948E+00   -9.0323150125E+00
-8.9744112224E+00   -8.9172443135E+00   -8.8608005071E+00   -8.8050664017E+00
-8.7500289207E+00   -8.6956752982E+00   -8.6419930643E+00   -8.5889700292E+00
-8.5365942699E+00   -8.4848541187E+00   -8.4337381536E+00   -8.3832351909E+00
-8.3333342788E+00   -8.2840246929E+00   -8.2352959329E+00   -8.1871377205E+00
-8.1395399975E+00   -8.0924929250E+00   -8.0459868829E+00   -8.0000124682E+00
-7.9545604958E+00   -7.9096220012E+00   -7.8651882150E+00   -7.8212505607E+00
-7.7778007533E+00   -7.7348307895E+00   -7.6923327014E+00   -7.6502984430E+00
-7.6087201822E+00   -7.5675903966E+00   -7.5269019000E+00   -7.4866483150E+00
-7.4468234994E+00   -7.4074209508E+00   -7.3684339458E+00   -7.3298557078E+00
-7.2916794901E+00   -7.2538987401E+00   -7.2165073720E+00   -7.1794995039E+00
-7.1428692684E+00   -7.1066109186E+00   -7.0707188224E+00   -7.0351874564E+00
-7.0000114031E+00   -6.9651853613E+00   -6.9307041341E+00   -6.8965626253E+00
-6.8627558390E+00   -6.8292788766E+00   -6.7961269349E+00   -6.7632953032E+00
-6.7307793618E+00   -6.6985745791E+00   -6.6666765099E+00   -6.6350807933E+00
-6.6037831508E+00   -6.5727793839E+00   -6.5420653729E+00   -6.5116370747E+00
-6.4814905210E+00   -6.4516218166E+00   -6.4220271379E+00   -6.3927027311E+00
-6.3636449107E+00   -6.3348500576E+00   -6.3063146184E+00   -6.2780351031E+00
-6.2500080841E+00   -6.2222301948E+00   -6.1946981281E+00   -6.1674086353E+00
-6.1403585245E+00   -6.1135446597E+00   -6.0869639595E+00   -6.0606133957E+00
-6.0344899924E+00   -6.0085908247E+00   -5.9829130178E+00   -5.9574537459E+00
-5.9322102309E+00   -5.9071797417E+00   -5.8823595932E+00   -5.8577471450E+00
-5.8333398008E+00   -5.8091350076E+00   -5.7851302544E+00   -5.7613230714E+00
-5.7377110297E+00   -5.7142917396E+00   -5.6910628505E+00   -5.6680220500E+00
-5.6451670627E+00   -5.6224956499E+00   -5.6000056087E+00   -5.5776947714E+00
-5.5555610045E+00   -5.5336022084E+00   -5.5118163166E+00   -5.4902012948E+00
-5.4687551408E+00   -5.4474758832E+00   -5.4263615815E+00   -5.4054103249E+00
-5.3846202322E+00   -5.3639894509E+00   -5.3435161568E+00   -5.3231985536E+00
-5.3030348720E+00   -5.2830233695E+00   -5.2631623299E+00   -5.2434500625E+00
-5.2238849019E+00   -5.2044652077E+00   -5.1851893635E+00   -5.1660557768E+00
-5.1470628788E+00   -5.1282091233E+00   -5.1094929869E+00   -5.0909129683E+00
-5.0724675880E+00   -5.0541553879E+00   -5.0359749306E+00   -5.0179247997E+00
-5.0000035988E+00   -4.9822099514E+00   -4.9645425006E+00   -4.9469999087E+00
-4.9295808566E+00   -4.9122840440E+00   -4.8951081887E+00   -4.8780520263E+00
-4.8611143099E+00   -4.8442938102E+00   -4.8275893144E+00   -4.8109996267E+00
-4.7945235676E+00   -4.7781599735E+00   -4.7619076970E+00   -4.7457656060E+00
-4.7297325837E+00   -4.7138075284E+00   -4.6979893533E+00   -4.6822769859E+00
-4.6666693683E+00   -4.6511654562E+00   -4.6357642197E+00   -4.6204646420E+00
-4.6052657200E+00   -4.5901664637E+00   -4.5751658958E+00   -4.5602630521E+00
-4.5454569806E+00   -4.5307467419E+00   -4.5161314085E+00   -4.5016100649E+00
-4.4871818074E+00   -4.4728457438E+00   -4.4586009933E+00   -4.4444466861E+00
-4.4303819637E+00   -4.4164059783E+00   -4.4025178926E+00   -4.3887168802E+00
-4.3750021245E+00   -4.3613728196E+00   -4.3478281692E+00   -4.3343673872E+00
-4.3209896969E+00   -4.3076943313E+00   -4.2944805329E+00   -4.2813475533E+00
-4.2682946533E+00   -4.2553211027E+00   -4.2424261802E+00   -4.2296091731E+00
-4.2168693773E+00   -4.2042060972E+00   -4.1916186456E+00   -4.1791063433E+00
-4.1666685195E+00   -4.1543045111E+00   -4.1420136629E+00   -4.1297953275E+00
-4.1176488650E+00   -4.1055736432E+00   -4.0935690371E+00   -4.0816344290E+00
-4.0697692086E+00   -4.0579727724E+00   -4.0462445240E+00   -4.0345838740E+00
-4.0229902395E+00   -4.0114630445E+00   -4.0000017195E+00   -3.9886057015E+00
-3.9772744340E+00   -3.9660073665E+00   -3.9548039550E+00   -3.9436636617E+00
-3.9325859545E+00   -3.9215703076E+00   -3.9106162009E+00   -3.8997231200E+00
-3.8888905566E+00   -3.8781180075E+00   -3.8674049756E+00   -3.8567509688E+00
-3.8461555007E+00   -3.8356180902E+00   -3.8251382614E+00   -3.8147155436E+00
-3.8043494711E+00   -3.7940395835E+00   -3.7837854251E+00   -3.7735865455E+00
-3.7634424986E+00   -3.7533528436E+00   -3.7433171441E+00   -3.7333349685E+00
-3.7234058896E+00   -3.7135294851E+00   -3.7037053368E+00   -3.6939330310E+00
-3.6842121586E+00   -3.6745423145E+00   -3.6649230979E+00   -3.6553541123E+00
-3.6458349652E+00   -3.6363652684E+00   -3.6269446374E+00   -3.6175726919E+00
-3.6082490554E+00   -3.5989733555E+00   -3.5897452233E+00   -3.5805642939E+00
-3.5714302059E+00   -3.5623426020E+00   -3.5533011280E+00   -3.5443054337E+00
-3.5353551722E+00   -3.5264500002E+00   -3.5175895779E+00   -3.5087735687E+00
-3.5000016396E+00   -3.4912734607E+00   -3.4825887056E+00   -3.4739470511E+00
-3.4653481770E+00   -3.4567917664E+00   -3.4482775057E+00   -3.4398050841E+00
-3.4313741939E+00   -3.4229845306E+00   -3.4146357924E+00   -3.4063276807E+00
-3.3980598996E+00   -3.3898321562E+00   -3.3816441602E+00   -3.3734956245E+00
-3.3653862644E+00   -3.3573157980E+00   -3.3492839463E+00   -3.3412904327E+00
-3.3333349835E+00   -3.3254173273E+00   -3.3175371955E+00   -3.3096943220E+00
-3.3018884431E+00   -3.2941192977E+00   -3.2863866271E+00   -3.2786901750E+00
-3.2710296876E+00   -3.2634049134E+00   -3.2558156032E+00   -3.2482615102E+00
-3.2407423897E+00   -3.2332579996E+00   -3.2258080996E+00   -3.2183924521E+00
-3.2110108211E+00   -3.2036629734E+00   -3.1963486773E+00   -3.1890677038E+00
-3.1818198255E+00   -3.1746048173E+00   -3.1674224562E+00   -3.1602725210E+00
-3.1531547927E+00   -3.1460690541E+00   -3.1390150900E+00   -3.1319926873E+00
-3.1250016344E+00   -3.1180417221E+00   -3.1111127426E+00   -3.1042144903E+00
-3.0973467611E+00   -3.0905093529E+00   -3.0837020654E+00   -3.0769247000E+00
-3.0701770598E+00   -3.0634589497E+00   -3.0567701763E+00   -3.0501105478E+00
-3.0434798741E+00   -3.0368779668E+00   -3.0303046391E+00   -3.0237597059E+00
-3.0172429835E+00   -3.0107542900E+00   -3.0042934449E+00   -2.9978602693E+00
-2.9914545858E+00   -2.9850762186E+00   -2.9787249933E+00   -2.9724007371E+00
-2.9661032785E+00   -2.9598324476E+00   -2.9535880758E+00   -2.9473699961E+00
-2.9411780426E+00   -2.9350120512E+00   -2.9288718589E+00   -2.9227573040E+00
-2.9166682264E+00   -2.9106044671E+00   -2.9045658686E+00   -2.8985522746E+00
-2.8925635301E+00   -2.8865994814E+00   -2.8806599760E+00   -2.8747448629E+00
-2.8688539919E+00   -2.8629872144E+00   -2.8571443829E+00   -2.8513253510E+00
-2.8455299738E+00   -2.8397581071E+00   -2.8340096082E+00   -2.8282843356E+00
-2.8225821486E+00   -2.8169029081E+00   -2.8112464757E+00   -2.8056127143E+00
-2.8000014879E+00   -2.7944126616E+00   -2.7888461015E+00   -2.7833016747E+00
-2.7777792497E+00   -2.7722786955E+00   -2.7667998827E+00   -2.7613426824E+00
-2.7559069672E+00   -2.7504926103E+00   -2.7450994862E+00   -2.7397274701E+00
-2.7343764385E+00   -2.7290462685E+00   -2.7237368384E+00   -2.7184480275E+00
-2.7131797158E+00   -2.7079317843E+00   -2.7027041151E+00   -2.6974965911E+00
-2.6923090959E+00   -2.6871415143E+00   -2.6819937319E+00   -2.6768656350E+00
-2.6717571109E+00   -2.6666680479E+00   -2.6615983349E+00   -2.6565478617E+00
-2.6515165191E+00   -2.6465041986E+00   -2.6415107924E+00   -2.6365361938E+00
-2.6315802966E+00   -2.6266429957E+00   -2.6217241865E+00   -2.6168237653E+00
-2.6119416293E+00   -2.6070776762E+00   -2.6022318047E+00   -2.5974039142E+00
-2.5925939047E+00   -2.5878016771E+00   -2.5830271330E+00   -2.5782701747E+00
-2.5735307051E+00   -2.5688086281E+00   -2.5641038480E+00   -2.5594162701E+00
-2.5547458001E+00   -2.5500923445E+00   -2.5454558105E+00   -2.5408361061E+00
-2.5362331397E+00   -2.5316468205E+00   -2.5270770585E+00   -2.5225237640E+00
-2.5179868482E+00   -2.5134662230E+00   -2.5089618008E+00   -2.5044734945E+00
-2.5000012178E+00   -2.4955448851E+00   -2.4911044112E+00   -2.4866797117E+00
-2.4822707025E+00   -2.4778773005E+00   -2.4734994228E+00   -2.4691369873E+00
-2.4647899125E+00   -2.4604581175E+00   -2.4561415216E+00   -2.4518400452E+00
-2.4475536090E+00   -2.4432821340E+00   -2.4390255423E+00   -2.4347837561E+00
-2.4305566983E+00   -2.4263442923E+00   -2.4221464622E+00   -2.4179631323E+00
-2.4137942276E+00   -2.4096396738E+00   -2.4054993968E+00   -2.4013733231E+00
-2.3972613797E+00   -2.3931634943E+00   -2.3890795949E+00   -2.3850096099E+00
-2.3809534684E+00   -2.3769110999E+00   -2.3728824343E+00   -2.3688674021E+00
-2.3648659342E+00   -2.3608779620E+00   -2.3569034172E+00   -2.3529422323E+00
-2.3489943400E+00   -2.3450596734E+00   -2.3411381662E+00   -2.3372297526E+00
-2.3333343669E+00   -2.3294519443E+00   -2.3255824201E+00   -2.3217257302E+00