<UPF version="2.0.1">
<PP_INFO>

This pseudopotential file has been produced using the code
ONCVPSP  (Optimized Norm-Conservinng Vanderbilt PSeudopotential)
fully-relativistic version 3.3.0 08/16/2017 by D. R. Hamann
The code is available through a link at URL www.mat-simresearch.com.
Documentation with the package provides a full discription of the
input data below.


While it is not required under the terms of the GNU GPL, it is
suggested that you cite D. R. Hamann, Phys. Rev. B 88, 085117 (2013)
in any publication using these pseudopotentials.

<PP_INPUTFILE>
# ATOM AND REFERENCE CONFIGURATION
# atsym  z   nc   nv     iexc    psfile
He  2.00    0    1 -116133      upf
#
#   n    l    f        energy (Ha)
1    0    2.00
#
# PSEUDOPOTENTIAL AND OPTIMIZATION
# lmax
1
#
#   l,   rc,     ep,   ncon, nbas, qcut
0   1.25000  -0.56958    4    8   9.40000
1   1.13000   0.05000    4    7   9.40000
#
# LOCAL POTENTIAL
# lloc, lpopt,  rc(5),   dvloc0
4    5   1.00000      0.00000
#
# VANDERBILT-KLEINMAN-BYLANDER PROJECTORs
# l, nproj, debl
0    2   1.00000
1    1   1.00000
#
# MODEL CORE CHARGE
# icmod, fcfact, rcfact
0   0.00000   0.00000
#
# LOG DERIVATIVE ANALYSIS
# epsh1, epsh2, depsh
-12.00   12.00    0.02
#
# OUTPUT GRID
# rlmax, drl
6.00    0.01
#
# TEST CONFIGURATIONS
# ncnf
0
# nvcnf
#   n    l    f
</PP_INPUTFILE>
</PP_INFO>
<!--                               -->
<!-- END OF HUMAN READABLE SECTION -->
<!--                               -->
<PP_HEADER
generated="Generated using ONCVPSP code by D. R. Hamann"
author="anonymous"
date="180509"
comment=""
element="He"
pseudo_type="NC"
relativistic="full"
is_ultrasoft="F"
is_paw="F"
is_coulomb="F"
has_so="T"
has_wfc="F"
has_gipaw="F"
core_correction="F"
functional="PBESOL"
z_valence="    2.00"
total_psenergy="  -5.65128882542E+00"
rho_cutoff="   7.31000000000E+00"
l_max="1"
l_local="-1"
mesh_size="   732"
number_of_wfc="1"
number_of_proj="4"/>
<PP_MESH>
<PP_R type="real"  size=" 732" columns="8">
0.0000    0.0100    0.0200    0.0300    0.0400    0.0500    0.0600    0.0700
0.0800    0.0900    0.1000    0.1100    0.1200    0.1300    0.1400    0.1500
0.1600    0.1700    0.1800    0.1900    0.2000    0.2100    0.2200    0.2300
0.2400    0.2500    0.2600    0.2700    0.2800    0.2900    0.3000    0.3100
0.3200    0.3300    0.3400    0.3500    0.3600    0.3700    0.3800    0.3900
0.4000    0.4100    0.4200    0.4300    0.4400    0.4500    0.4600    0.4700
0.4800    0.4900    0.5000    0.5100    0.5200    0.5300    0.5400    0.5500
0.5600    0.5700    0.5800    0.5900    0.6000    0.6100    0.6200    0.6300
0.6400    0.6500    0.6600    0.6700    0.6800    0.6900    0.7000    0.7100
0.7200    0.7300    0.7400    0.7500    0.7600    0.7700    0.7800    0.7900
0.8000    0.8100    0.8200    0.8300    0.8400    0.8500    0.8600    0.8700
0.8800    0.8900    0.9000    0.9100    0.9200    0.9300    0.9400    0.9500
0.9600    0.9700    0.9800    0.9900    1.0000    1.0100    1.0200    1.0300
1.0400    1.0500    1.0600    1.0700    1.0800    1.0900    1.1000    1.1100
1.1200    1.1300    1.1400    1.1500    1.1600    1.1700    1.1800    1.1900
1.2000    1.2100    1.2200    1.2300    1.2400    1.2500    1.2600    1.2700
1.2800    1.2900    1.3000    1.3100    1.3200    1.3300    1.3400    1.3500
1.3600    1.3700    1.3800    1.3900    1.4000    1.4100    1.4200    1.4300
1.4400    1.4500    1.4600    1.4700    1.4800    1.4900    1.5000    1.5100
1.5200    1.5300    1.5400    1.5500    1.5600    1.5700    1.5800    1.5900
1.6000    1.6100    1.6200    1.6300    1.6400    1.6500    1.6600    1.6700
1.6800    1.6900    1.7000    1.7100    1.7200    1.7300    1.7400    1.7500
1.7600    1.7700    1.7800    1.7900    1.8000    1.8100    1.8200    1.8300
1.8400    1.8500    1.8600    1.8700    1.8800    1.8900    1.9000    1.9100
1.9200    1.9300    1.9400    1.9500    1.9600    1.9700    1.9800    1.9900
2.0000    2.0100    2.0200    2.0300    2.0400    2.0500    2.0600    2.0700
2.0800    2.0900    2.1000    2.1100    2.1200    2.1300    2.1400    2.1500
2.1600    2.1700    2.1800    2.1900    2.2000    2.2100    2.2200    2.2300
2.2400    2.2500    2.2600    2.2700    2.2800    2.2900    2.3000    2.3100
2.3200    2.3300    2.3400    2.3500    2.3600    2.3700    2.3800    2.3900
2.4000    2.4100    2.4200    2.4300    2.4400    2.4500    2.4600    2.4700
2.4800    2.4900    2.5000    2.5100    2.5200    2.5300    2.5400    2.5500
2.5600    2.5700    2.5800    2.5900    2.6000    2.6100    2.6200    2.6300
2.6400    2.6500    2.6600    2.6700    2.6800    2.6900    2.7000    2.7100
2.7200    2.7300    2.7400    2.7500    2.7600    2.7700    2.7800    2.7900
2.8000    2.8100    2.8200    2.8300    2.8400    2.8500    2.8600    2.8700
2.8800    2.8900    2.9000    2.9100    2.9200    2.9300    2.9400    2.9500
2.9600    2.9700    2.9800    2.9900    3.0000    3.0100    3.0200    3.0300
3.0400    3.0500    3.0600    3.0700    3.0800    3.0900    3.1000    3.1100
3.1200    3.1300    3.1400    3.1500    3.1600    3.1700    3.1800    3.1900
3.2000    3.2100    3.2200    3.2300    3.2400    3.2500    3.2600    3.2700
3.2800    3.2900    3.3000    3.3100    3.3200    3.3300    3.3400    3.3500
3.3600    3.3700    3.3800    3.3900    3.4000    3.4100    3.4200    3.4300
3.4400    3.4500    3.4600    3.4700    3.4800    3.4900    3.5000    3.5100
3.5200    3.5300    3.5400    3.5500    3.5600    3.5700    3.5800    3.5900
3.6000    3.6100    3.6200    3.6300    3.6400    3.6500    3.6600    3.6700
3.6800    3.6900    3.7000    3.7100    3.7200    3.7300    3.7400    3.7500
3.7600    3.7700    3.7800    3.7900    3.8000    3.8100    3.8200    3.8300
3.8400    3.8500    3.8600    3.8700    3.8800    3.8900    3.9000    3.9100
3.9200    3.9300    3.9400    3.9500    3.9600    3.9700    3.9800    3.9900
4.0000    4.0100    4.0200    4.0300    4.0400    4.0500    4.0600    4.0700
4.0800    4.0900    4.1000    4.1100    4.1200    4.1300    4.1400    4.1500
4.1600    4.1700    4.1800    4.1900    4.2000    4.2100    4.2200    4.2300
4.2400    4.2500    4.2600    4.2700    4.2800    4.2900    4.3000    4.3100
4.3200    4.3300    4.3400    4.3500    4.3600    4.3700    4.3800    4.3900
4.4000    4.4100    4.4200    4.4300    4.4400    4.4500    4.4600    4.4700
4.4800    4.4900    4.5000    4.5100    4.5200    4.5300    4.5400    4.5500
4.5600    4.5700    4.5800    4.5900    4.6000    4.6100    4.6200    4.6300
4.6400    4.6500    4.6600    4.6700    4.6800    4.6900    4.7000    4.7100
4.7200    4.7300    4.7400    4.7500    4.7600    4.7700    4.7800    4.7900
4.8000    4.8100    4.8200    4.8300    4.8400    4.8500    4.8600    4.8700
4.8800    4.8900    4.9000    4.9100    4.9200    4.9300    4.9400    4.9500
4.9600    4.9700    4.9800    4.9900    5.0000    5.0100    5.0200    5.0300
5.0400    5.0500    5.0600    5.0700    5.0800    5.0900    5.1000    5.1100
5.1200    5.1300    5.1400    5.1500    5.1600    5.1700    5.1800    5.1900
5.2000    5.2100    5.2200    5.2300    5.2400    5.2500    5.2600    5.2700
5.2800    5.2900    5.3000    5.3100    5.3200    5.3300    5.3400    5.3500
5.3600    5.3700    5.3800    5.3900    5.4000    5.4100    5.4200    5.4300
5.4400    5.4500    5.4600    5.4700    5.4800    5.4900    5.5000    5.5100
5.5200    5.5300    5.5400    5.5500    5.5600    5.5700    5.5800    5.5900
5.6000    5.6100    5.6200    5.6300    5.6400    5.6500    5.6600    5.6700
5.6800    5.6900    5.7000    5.7100    5.7200    5.7300    5.7400    5.7500
5.7600    5.7700    5.7800    5.7900    5.8000    5.8100    5.8200    5.8300
5.8400    5.8500    5.8600    5.8700    5.8800    5.8900    5.9000    5.9100
5.9200    5.9300    5.9400    5.9500    5.9600    5.9700    5.9800    5.9900
6.0000    6.0100    6.0200    6.0300    6.0400    6.0500    6.0600    6.0700
6.0800    6.0900    6.1000    6.1100    6.1200    6.1300    6.1400    6.1500
6.1600    6.1700    6.1800    6.1900    6.2000    6.2100    6.2200    6.2300
6.2400    6.2500    6.2600    6.2700    6.2800    6.2900    6.3000    6.3100
6.3200    6.3300    6.3400    6.3500    6.3600    6.3700    6.3800    6.3900
6.4000    6.4100    6.4200    6.4300    6.4400    6.4500    6.4600    6.4700
6.4800    6.4900    6.5000    6.5100    6.5200    6.5300    6.5400    6.5500
6.5600    6.5700    6.5800    6.5900    6.6000    6.6100    6.6200    6.6300
6.6400    6.6500    6.6600    6.6700    6.6800    6.6900    6.7000    6.7100
6.7200    6.7300    6.7400    6.7500    6.7600    6.7700    6.7800    6.7900
6.8000    6.8100    6.8200    6.8300    6.8400    6.8500    6.8600    6.8700
6.8800    6.8900    6.9000    6.9100    6.9200    6.9300    6.9400    6.9500
6.9600    6.9700    6.9800    6.9900    7.0000    7.0100    7.0200    7.0300
7.0400    7.0500    7.0600    7.0700    7.0800    7.0900    7.1000    7.1100
7.1200    7.1300    7.1400    7.1500    7.1600    7.1700    7.1800    7.1900
7.2000    7.2100    7.2200    7.2300    7.2400    7.2500    7.2600    7.2700
7.2800    7.2900    7.3000    7.3100
</PP_R>
<PP_RAB type="real"  size=" 732" columns="8">
0.0100    0.0100    0.0100    0.0100    0.0100    0.0100    0.0100    0.0100
0.0100    0.0100    0.0100    0.0100    0.0100    0.0100    0.0100    0.0100
0.0100    0.0100    0.0100    0.0100    0.0100    0.0100    0.0100    0.0100
0.0100    0.0100    0.0100    0.0100    0.0100    0.0100    0.0100    0.0100
0.0100    0.0100    0.0100    0.0100    0.0100    0.0100    0.0100    0.0100
0.0100    0.0100    0.0100    0.0100    0.0100    0.0100    0.0100    0.0100
0.0100    0.0100    0.0100    0.0100    0.0100    0.0100    0.0100    0.0100
0.0100    0.0100    0.0100    0.0100    0.0100    0.0100    0.0100    0.0100
0.0100    0.0100    0.0100    0.0100    0.0100    0.0100    0.0100    0.0100
0.0100    0.0100    0.0100    0.0100    0.0100    0.0100    0.0100    0.0100
0.0100    0.0100    0.0100    0.0100    0.0100    0.0100    0.0100    0.0100
0.0100    0.0100    0.0100    0.0100    0.0100    0.0100    0.0100    0.0100
0.0100    0.0100    0.0100    0.0100    0.0100    0.0100    0.0100    0.0100
0.0100    0.0100    0.0100    0.0100    0.0100    0.0100    0.0100    0.0100
0.0100    0.0100    0.0100    0.0100    0.0100    0.0100    0.0100    0.0100
0.0100    0.0100    0.0100    0.0100    0.0100    0.0100    0.0100    0.0100
0.0100    0.0100    0.0100    0.0100    0.0100    0.0100    0.0100    0.0100
0.0100    0.0100    0.0100    0.0100    0.0100    0.0100    0.0100    0.0100
0.0100    0.0100    0.0100    0.0100    0.0100    0.0100    0.0100    0.0100
0.0100    0.0100    0.0100    0.0100    0.0100    0.0100    0.0100    0.0100
0.0100    0.0100    0.0100    0.0100    0.0100    0.0100    0.0100    0.0100
0.0100    0.0100    0.0100    0.0100    0.0100    0.0100    0.0100    0.0100
0.0100    0.0100    0.0100    0.0100    0.0100    0.0100    0.0100    0.0100
0.0100    0.0100    0.0100    0.0100    0.0100    0.0100    0.0100    0.0100
0.0100    0.0100    0.0100    0.0100    0.0100    0.0100    0.0100    0.0100
0.0100    0.0100    0.0100    0.0100    0.0100    0.0100    0.0100    0.0100
0.0100    0.0100    0.0100    0.0100    0.0100    0.0100    0.0100    0.0100
0.0100    0.0100    0.0100    0.0100    0.0100    0.0100    0.0100    0.0100
0.0100    0.0100    0.0100    0.0100    0.0100    0.0100    0.0100    0.0100
0.0100    0.0100    0.0100    0.0100    0.0100    0.0100    0.0100    0.0100
0.0100    0.0100    0.0100    0.0100    0.0100    0.0100    0.0100    0.0100
0.0100    0.0100    0.0100    0.0100    0.0100    0.0100    0.0100    0.0100
0.0100    0.0100    0.0100    0.0100    0.0100    0.0100    0.0100    0.0100
0.0100    0.0100    0.0100    0.0100    0.0100    0.0100    0.0100    0.0100
0.0100    0.0100    0.0100    0.0100    0.0100    0.0100    0.0100    0.0100
0.0100    0.0100    0.0100    0.0100    0.0100    0.0100    0.0100    0.0100
0.0100    0.0100    0.0100    0.0100    0.0100    0.0100    0.0100    0.0100
0.0100    0.0100    0.0100    0.0100    0.0100    0.0100    0.0100    0.0100
0.0100    0.0100    0.0100    0.0100    0.0100    0.0100    0.0100    0.0100
0.0100    0.0100    0.0100    0.0100    0.0100    0.0100    0.0100    0.0100
0.0100    0.0100    0.0100    0.0100    0.0100    0.0100    0.0100    0.0100
0.0100    0.0100    0.0100    0.0100    0.0100    0.0100    0.0100    0.0100
0.0100    0.0100    0.0100    0.0100    0.0100    0.0100    0.0100    0.0100
0.0100    0.0100    0.0100    0.0100    0.0100    0.0100    0.0100    0.0100
0.0100    0.0100    0.0100    0.0100    0.0100    0.0100    0.0100    0.0100
0.0100    0.0100    0.0100    0.0100    0.0100    0.0100    0.0100    0.0100
0.0100    0.0100    0.0100    0.0100    0.0100    0.0100    0.0100    0.0100
0.0100    0.0100    0.0100    0.0100    0.0100    0.0100    0.0100    0.0100
0.0100    0.0100    0.0100    0.0100    0.0100    0.0100    0.0100    0.0100
0.0100    0.0100    0.0100    0.0100    0.0100    0.0100    0.0100    0.0100
0.0100    0.0100    0.0100    0.0100    0.0100    0.0100    0.0100    0.0100
0.0100    0.0100    0.0100    0.0100    0.0100    0.0100    0.0100    0.0100
0.0100    0.0100    0.0100    0.0100    0.0100    0.0100    0.0100    0.0100
0.0100    0.0100    0.0100    0.0100    0.0100    0.0100    0.0100    0.0100
0.0100    0.0100    0.0100    0.0100    0.0100    0.0100    0.0100    0.0100
0.0100    0.0100    0.0100    0.0100    0.0100    0.0100    0.0100    0.0100
0.0100    0.0100    0.0100    0.0100    0.0100    0.0100    0.0100    0.0100
0.0100    0.0100    0.0100    0.0100    0.0100    0.0100    0.0100    0.0100
0.0100    0.0100    0.0100    0.0100    0.0100    0.0100    0.0100    0.0100
0.0100    0.0100    0.0100    0.0100    0.0100    0.0100    0.0100    0.0100
0.0100    0.0100    0.0100    0.0100    0.0100    0.0100    0.0100    0.0100
0.0100    0.0100    0.0100    0.0100    0.0100    0.0100    0.0100    0.0100
0.0100    0.0100    0.0100    0.0100    0.0100    0.0100    0.0100    0.0100
0.0100    0.0100    0.0100    0.0100    0.0100    0.0100    0.0100    0.0100
0.0100    0.0100    0.0100    0.0100    0.0100    0.0100    0.0100    0.0100
0.0100    0.0100    0.0100    0.0100    0.0100    0.0100    0.0100    0.0100
0.0100    0.0100    0.0100    0.0100    0.0100    0.0100    0.0100    0.0100
0.0100    0.0100    0.0100    0.0100    0.0100    0.0100    0.0100    0.0100
0.0100    0.0100    0.0100    0.0100    0.0100    0.0100    0.0100    0.0100
0.0100    0.0100    0.0100    0.0100    0.0100    0.0100    0.0100    0.0100
0.0100    0.0100    0.0100    0.0100    0.0100    0.0100    0.0100    0.0100
0.0100    0.0100    0.0100    0.0100    0.0100    0.0100    0.0100    0.0100
0.0100    0.0100    0.0100    0.0100    0.0100    0.0100    0.0100    0.0100
0.0100    0.0100    0.0100    0.0100    0.0100    0.0100    0.0100    0.0100
0.0100    0.0100    0.0100    0.0100    0.0100    0.0100    0.0100    0.0100
0.0100    0.0100    0.0100    0.0100    0.0100    0.0100    0.0100    0.0100
0.0100    0.0100    0.0100    0.0100    0.0100    0.0100    0.0100    0.0100
0.0100    0.0100    0.0100    0.0100    0.0100    0.0100    0.0100    0.0100
0.0100    0.0100    0.0100    0.0100    0.0100    0.0100    0.0100    0.0100
0.0100    0.0100    0.0100    0.0100    0.0100    0.0100    0.0100    0.0100
0.0100    0.0100    0.0100    0.0100    0.0100    0.0100    0.0100    0.0100
0.0100    0.0100    0.0100    0.0100    0.0100    0.0100    0.0100    0.0100
0.0100    0.0100    0.0100    0.0100    0.0100    0.0100    0.0100    0.0100
0.0100    0.0100    0.0100    0.0100    0.0100    0.0100    0.0100    0.0100
0.0100    0.0100    0.0100    0.0100    0.0100    0.0100    0.0100    0.0100
0.0100    0.0100    0.0100    0.0100    0.0100    0.0100    0.0100    0.0100
0.0100    0.0100    0.0100    0.0100    0.0100    0.0100    0.0100    0.0100
0.0100    0.0100    0.0100    0.0100    0.0100    0.0100    0.0100    0.0100
0.0100    0.0100    0.0100    0.0100    0.0100    0.0100    0.0100    0.0100
0.0100    0.0100    0.0100    0.0100    0.0100    0.0100    0.0100    0.0100
0.0100    0.0100    0.0100    0.0100    0.0100    0.0100    0.0100    0.0100
0.0100    0.0100    0.0100    0.0100
</PP_RAB>
</PP_MESH>
<PP_LOCAL type="real"  size=" 732" columns="4">
-8.8412950642E+00   -8.8401451998E+00   -8.8366981065E+00   -8.8309619942E+00
-8.8229503742E+00   -8.8126819352E+00   -8.8001803481E+00   -8.7854740134E+00
-8.7685957647E+00   -8.7495825372E+00   -8.7284750083E+00   -8.7053172190E+00
-8.6801561838E+00   -8.6530414970E+00   -8.6240249430E+00   -8.5931601165E+00
-8.5605020588E+00   -8.5261069144E+00   -8.4900316117E+00   -8.4523335713E+00
-8.4130704419E+00   -8.3722998663E+00   -8.3300792764E+00   -8.2864657172E+00
-8.2415156978E+00   -8.1952850685E+00   -8.1478289214E+00   -8.0992015128E+00
-8.0494562039E+00   -7.9986454192E+00   -7.9468206185E+00   -7.8940322813E+00
-7.8403299009E+00   -7.7857619873E+00   -7.7303760754E+00   -7.6742187393E+00
-7.6173356088E+00   -7.5597713894E+00   -7.5015698835E+00   -7.4427740122E+00
-7.3834258378E+00   -7.3235665862E+00   -7.2632366681E+00   -7.2024757010E+00
-7.1413225290E+00   -7.0798152433E+00   -7.0179912013E+00   -6.9558870452E+00
-6.8935387205E+00   -6.8309814938E+00   -6.7682499703E+00   -6.7053781117E+00
-6.6423992535E+00   -6.5793461220E+00   -6.5162508523E+00   -6.4531450051E+00
-6.3900595838E+00   -6.3270250515E+00   -6.2640713471E+00   -6.2012279013E+00
-6.1385236506E+00   -6.0759870514E+00   -6.0136460918E+00   -5.9515283011E+00
-5.8896607584E+00   -5.8280700969E+00   -5.7667825066E+00   -5.7058237331E+00
-5.6452190729E+00   -5.5849933648E+00   -5.5251709771E+00   -5.4657757912E+00
-5.4068311796E+00   -5.3483599811E+00   -5.2903844699E+00   -5.2329263215E+00
-5.1760065745E+00   -5.1196455876E+00   -5.0638629938E+00   -5.0086776508E+00
-4.9541075886E+00   -4.9001699541E+00   -4.8468809543E+00   -4.7942557969E+00
-4.7423086303E+00   -4.6910524817E+00   -4.6404991953E+00   -4.5906593703E+00
-4.5415422977E+00   -4.4931558986E+00   -4.4455066618E+00   -4.3985995818E+00
-4.3524380969E+00   -4.3070240272E+00   -4.2623575124E+00   -4.2184369487E+00
-4.1752589246E+00   -4.1328181547E+00   -4.0911074113E+00   -4.0501174517E+00
-4.0098369743E+00   -3.9702524129E+00   -3.9313483923E+00   -3.8931093535E+00
-3.8555209869E+00   -3.8185702132E+00   -3.7822450797E+00   -3.7465346882E+00
-3.7114291074E+00   -3.6769192781E+00   -3.6429969137E+00   -3.6096543954E+00
-3.5768846616E+00   -3.5446810944E+00   -3.5130374012E+00   -3.4819474951E+00
-3.4514053739E+00   -3.4214050004E+00   -3.3919401846E+00   -3.3630044771E+00
-3.3345910660E+00   -3.3066926395E+00   -3.2793013249E+00   -3.2524088580E+00
-3.2260069453E+00   -3.2000859740E+00   -3.1746313079E+00   -3.1496171602E+00
-3.1250132086E+00   -3.1007922475E+00   -3.0769408908E+00   -3.0534518840E+00
-3.0303192797E+00   -3.0075349692E+00   -2.9850904920E+00   -2.9629785238E+00
-2.9411917584E+00   -2.9197230481E+00   -2.8985654817E+00   -2.8777123444E+00
-2.8571571123E+00   -2.8368934469E+00   -2.8169151883E+00   -2.7972163486E+00
-2.7777911067E+00   -2.7586338016E+00   -2.7397389279E+00   -2.7211011295E+00
-2.7027151954E+00   -2.6845760545E+00   -2.6666787707E+00   -2.6490185388E+00
-2.6315906801E+00   -2.6143906381E+00   -2.5974139749E+00   -2.5806563667E+00
-2.5641136009E+00   -2.5477815723E+00   -2.5316562792E+00   -2.5157338211E+00
-2.5000103947E+00   -2.4844822912E+00   -2.4691458936E+00   -2.4539976733E+00
-2.4390341880E+00   -2.4242520789E+00   -2.4096480681E+00   -2.3952189561E+00
-2.3809616197E+00   -2.3668730095E+00   -2.3529501481E+00   -2.3391901274E+00
-2.3255901072E+00   -2.3121473129E+00   -2.2988590337E+00   -2.2857226207E+00
-2.2727354852E+00   -2.2598950971E+00   -2.2471989832E+00   -2.2346447253E+00
-2.2222299593E+00   -2.2099523730E+00   -2.1978097053E+00   -2.1857997444E+00
-2.1739203266E+00   -2.1621693349E+00   -2.1505446980E+00   -2.1390443887E+00
-2.1276664233E+00   -2.1164088596E+00   -2.1052697966E+00   -2.0942473731E+00
-2.0833397665E+00   -2.0725451922E+00   -2.0618619023E+00   -2.0512881847E+00
-2.0408223622E+00   -2.0304627919E+00   -2.0202078639E+00   -2.0100560007E+00
-2.0000056563E+00   -1.9900553155E+00   -1.9802034932E+00   -1.9704487334E+00
-1.9607896088E+00   -1.9512247199E+00   -1.9417526943E+00   -1.9323721862E+00
-1.9230818756E+00   -1.9138804680E+00   -1.9047666932E+00   -1.8957393054E+00
-1.8867970820E+00   -1.8779388237E+00   -1.8691633533E+00   -1.8604695158E+00
-1.8518561773E+00   -1.8433222249E+00   -1.8348665663E+00   -1.8264881290E+00
-1.8181858599E+00   -1.8099587251E+00   -1.8018057093E+00   -1.7937258154E+00
-1.7857180641E+00   -1.7777814935E+00   -1.7699151588E+00   -1.7621181318E+00
-1.7543895005E+00   -1.7467283689E+00   -1.7391338567E+00   -1.7316050986E+00
-1.7241412444E+00   -1.7167414584E+00   -1.7094049193E+00   -1.7021308197E+00
-1.6949183658E+00   -1.6877667773E+00   -1.6806752870E+00   -1.6736431407E+00
-1.6666695964E+00   -1.6597539247E+00   -1.6528954081E+00   -1.6460933411E+00
-1.6393470296E+00   -1.6326557909E+00   -1.6260189534E+00   -1.6194358563E+00
-1.6129058495E+00   -1.6064282934E+00   -1.6000025587E+00   -1.5936280258E+00
-1.5873040853E+00   -1.5810301372E+00   -1.5748055911E+00   -1.5686298658E+00
-1.5625023891E+00   -1.5564225978E+00   -1.5503899375E+00   -1.5444038623E+00
-1.5384638345E+00   -1.5325693248E+00   -1.5267198122E+00   -1.5209147833E+00
-1.5151537326E+00   -1.5094361622E+00   -1.5037615818E+00   -1.4981295082E+00
-1.4925394657E+00   -1.4869909855E+00   -1.4814836058E+00   -1.4760168715E+00
-1.4705903345E+00   -1.4652035528E+00   -1.4598560913E+00   -1.4545475210E+00
-1.4492774192E+00   -1.4440453691E+00   -1.4388509602E+00   -1.4336937877E+00
-1.4285734526E+00   -1.4234895616E+00   -1.4184417271E+00   -1.4134295667E+00
-1.4084527037E+00   -1.4035107664E+00   -1.3986033885E+00   -1.3937302088E+00
-1.3888908709E+00   -1.3840850236E+00   -1.3793123204E+00   -1.3745724197E+00
-1.3698649842E+00   -1.3651896818E+00   -1.3605461844E+00   -1.3559341686E+00
-1.3513533153E+00   -1.3468033098E+00   -1.3422838414E+00   -1.3377946038E+00
-1.3333352946E+00   -1.3289056156E+00   -1.3245052724E+00   -1.3201339745E+00
-1.3157914353E+00   -1.3114773719E+00   -1.3071915052E+00   -1.3029335595E+00
-1.2987032629E+00   -1.2945003470E+00   -1.2903245467E+00   -1.2861756006E+00
-1.2820532503E+00   -1.2779572410E+00   -1.2738873209E+00   -1.2698432417E+00
-1.2658247579E+00   -1.2618316274E+00   -1.2578636109E+00   -1.2539204723E+00
-1.2500019783E+00   -1.2461078986E+00   -1.2422380056E+00   -1.2383920749E+00
-1.2345698845E+00   -1.2307712152E+00   -1.2269958505E+00   -1.2232435768E+00
-1.2195141827E+00   -1.2158074597E+00   -1.2121232016E+00   -1.2084612048E+00
-1.2048212681E+00   -1.2012031929E+00   -1.1976067827E+00   -1.1940318436E+00
-1.1904781837E+00   -1.1869456138E+00   -1.1834339465E+00   -1.1799429970E+00
-1.1764725823E+00   -1.1730225219E+00   -1.1695926372E+00   -1.1661827517E+00
-1.1627926910E+00   -1.1594222827E+00   -1.1560713564E+00   -1.1527397438E+00
-1.1494272782E+00   -1.1461337951E+00   -1.1428591318E+00   -1.1396031274E+00
-1.1363656230E+00   -1.1331464612E+00   -1.1299454867E+00   -1.1267625456E+00
-1.1235974862E+00   -1.1204501581E+00   -1.1173204127E+00   -1.1142081030E+00
-1.1111130839E+00   -1.1080352115E+00   -1.1049743439E+00   -1.1019303404E+00
-1.0989030621E+00   -1.0958923714E+00   -1.0928981326E+00   -1.0899202109E+00
-1.0869584735E+00   -1.0840127888E+00   -1.0810830266E+00   -1.0781690581E+00
-1.0752707559E+00   -1.0723879942E+00   -1.0695206482E+00   -1.0666685946E+00
-1.0638317113E+00   -1.0610098777E+00   -1.0582029744E+00   -1.0554108830E+00
-1.0526334868E+00   -1.0498706700E+00   -1.0471223181E+00   -1.0443883177E+00
-1.0416685569E+00   -1.0389629245E+00   -1.0362713109E+00   -1.0335936073E+00
-1.0309297063E+00   -1.0282795012E+00   -1.0256428869E+00   -1.0230197589E+00
-1.0204100142E+00   -1.0178135505E+00   -1.0152302668E+00   -1.0126600628E+00
-1.0101028396E+00   -1.0075584991E+00   -1.0050269441E+00   -1.0025080785E+00
-1.0000018071E+00   -9.9750803573E-01   -9.9502667111E-01   -9.9255762088E-01
-9.9010079358E-01   -9.8765609868E-01   -9.8522344653E-01   -9.8280274836E-01
-9.8039391629E-01   -9.7799686327E-01   -9.7561150311E-01   -9.7323775047E-01
-9.7087552083E-01   -9.6852473049E-01   -9.6618529655E-01   -9.6385713692E-01
-9.6154017030E-01   -9.5923431616E-01   -9.5693949475E-01   -9.5465562708E-01
-9.5238263491E-01   -9.5012044073E-01   -9.4786896780E-01   -9.4562814007E-01
-9.4339788222E-01   -9.4117811965E-01   -9.3896877844E-01   -9.3676978538E-01
-9.3458106794E-01   -9.3240255425E-01   -9.3023417314E-01   -9.2807585407E-01
-9.2592752716E-01   -9.2378912320E-01   -9.2166057359E-01   -9.1954181037E-01
-9.1743276619E-01   -9.1533337436E-01   -9.1324356874E-01   -9.1116328384E-01
-9.0909245473E-01   -9.0703101710E-01   -9.0497890721E-01   -9.0293606188E-01
-9.0090241852E-01   -8.9887791510E-01   -8.9686249013E-01   -8.9485608269E-01
-8.9285863239E-01   -8.9087007939E-01   -8.8889036437E-01   -8.8691942855E-01
-8.8495721365E-01   -8.8300366192E-01   -8.8105871612E-01   -8.7912231950E-01
-8.7719441583E-01   -8.7527494934E-01   -8.7336386478E-01   -8.7146110736E-01
-8.6956662278E-01   -8.6768035719E-01   -8.6580225724E-01   -8.6393227001E-01
-8.6207034304E-01   -8.6021642435E-01   -8.5837046237E-01   -8.5653240598E-01
-8.5470220453E-01   -8.5287980775E-01   -8.5106516583E-01   -8.4925822939E-01
-8.4745894944E-01   -8.4566727742E-01   -8.4388316519E-01   -8.4210656499E-01
-8.4033742949E-01   -8.3857571174E-01   -8.3682136518E-01   -8.3507434364E-01
-8.3333460135E-01   -8.3160209290E-01   -8.2987677328E-01   -8.2815859783E-01
-8.2644752226E-01   -8.2474350267E-01   -8.2304649550E-01   -8.2135645755E-01
-8.1967334597E-01   -8.1799711829E-01   -8.1632773234E-01   -8.1466514632E-01
-8.1300931879E-01   -8.1136020860E-01   -8.0971777496E-01   -8.0808197742E-01
-8.0645277583E-01   -8.0483013038E-01   -8.0321400157E-01   -8.0160435023E-01
-8.0000113750E-01   -7.9840432481E-01   -7.9681387392E-01   -7.9522974690E-01
-7.9365190609E-01   -7.9208031415E-01   -7.9051493404E-01   -7.8895572900E-01
-7.8740266256E-01   -7.8585569855E-01   -7.8431480106E-01   -7.8277993448E-01
-7.8125106347E-01   -7.7972815298E-01   -7.7821116821E-01   -7.7670007464E-01
-7.7519483803E-01   -7.7369542439E-01   -7.7220179999E-01   -7.7071393137E-01
-7.6923178533E-01   -7.6775532891E-01   -7.6628452941E-01   -7.6481935439E-01
-7.6335977165E-01   -7.6190574922E-01   -7.6045725540E-01   -7.5901425872E-01
-7.5757672794E-01   -7.5614463206E-01   -7.5471794032E-01   -7.5329662219E-01
-7.5188064737E-01   -7.5046998578E-01   -7.4906460757E-01   -7.4766448312E-01
-7.4626958302E-01   -7.4487987808E-01   -7.4349533934E-01   -7.4211593804E-01
-7.4074164564E-01   -7.3937243381E-01   -7.3800827443E-01   -7.3664913959E-01
-7.3529500157E-01   -7.3394583288E-01   -7.3260160620E-01   -7.3126229443E-01
-7.2992787067E-01   -7.2859830821E-01   -7.2727358052E-01   -7.2595366130E-01
-7.2463852440E-01   -7.2332814388E-01   -7.2202249398E-01   -7.2072154913E-01
-7.1942528396E-01   -7.1813367324E-01   -7.1684669196E-01   -7.1556431528E-01
-7.1428651852E-01   -7.1301327719E-01   -7.1174456698E-01   -7.1048036374E-01
-7.0922064351E-01   -7.0796538247E-01   -7.0671455699E-01   -7.0546814360E-01
-7.0422611900E-01   -7.0298846005E-01   -7.0175514377E-01   -7.0052614735E-01
-6.9930144813E-01   -6.9808102361E-01   -6.9686485145E-01   -6.9565290947E-01
-6.9444517562E-01   -6.9324162804E-01   -6.9204224500E-01   -6.9084700491E-01
-6.8965588635E-01   -6.8846886803E-01   -6.8728592883E-01   -6.8610704774E-01
-6.8493220393E-01   -6.8376137669E-01   -6.8259454546E-01   -6.8143168982E-01
-6.8027278947E-01   -6.7911782429E-01   -6.7796677425E-01   -6.7681961948E-01
-6.7567634024E-01   -6.7453691694E-01   -6.7340133008E-01   -6.7226956034E-01
-6.7114158849E-01   -6.7001739545E-01   -6.6889696227E-01   -6.6778027011E-01
-6.6666730026E-01   -6.6555803416E-01   -6.6445245334E-01   -6.6335053946E-01
-6.6225227431E-01   -6.6115763980E-01   -6.6006661796E-01   -6.5897919093E-01
-6.5789534098E-01   -6.5681505048E-01   -6.5573830192E-01   -6.5466507792E-01
-6.5359536120E-01   -6.5252913460E-01   -6.5146638106E-01   -6.5040708364E-01
-6.4935122550E-01   -6.4829878993E-01   -6.4724976032E-01   -6.4620412015E-01
-6.4516185302E-01   -6.4412294265E-01   -6.4308737283E-01   -6.4205512748E-01
-6.4102619063E-01   -6.4000054638E-01   -6.3897817897E-01   -6.3795907271E-01
-6.3694321202E-01   -6.3593058142E-01   -6.3492116554E-01   -6.3391494908E-01
-6.3291191687E-01   -6.3191205380E-01   -6.3091534489E-01   -6.2992177523E-01
-6.2893133002E-01   -6.2794399453E-01   -6.2695975415E-01   -6.2597859435E-01
-6.2500050069E-01   -6.2402545881E-01   -6.2305345446E-01   -6.2208447346E-01
-6.2111850173E-01   -6.2015552527E-01   -6.1919553018E-01   -6.1823850263E-01
-6.1728442888E-01   -6.1633329527E-01   -6.1538508824E-01   -6.1443979430E-01
-6.1349740005E-01   -6.1255789217E-01   -6.1162125740E-01   -6.1068748261E-01
-6.0975655470E-01   -6.0882846068E-01   -6.0790318762E-01   -6.0698072269E-01
-6.0606105312E-01   -6.0514416623E-01   -6.0423004940E-01   -6.0331869009E-01
-6.0241007586E-01   -6.0150419432E-01   -6.0060103315E-01   -5.9970058012E-01
-5.9880282308E-01   -5.9790774992E-01   -5.9701534864E-01   -5.9612560728E-01
-5.9523851398E-01   -5.9435405692E-01   -5.9347222438E-01   -5.9259300469E-01
-5.9171638626E-01   -5.9084235755E-01   -5.8997090711E-01   -5.8910202355E-01
-5.8823569554E-01   -5.8737191182E-01   -5.8651066121E-01   -5.8565193258E-01
-5.8479571486E-01   -5.8394199706E-01   -5.8309076825E-01   -5.8224201755E-01
-5.8139573417E-01   -5.8055190735E-01   -5.7971052643E-01   -5.7887158077E-01
-5.7803505983E-01   -5.7720095310E-01   -5.7636925015E-01   -5.7553994060E-01
-5.7471301414E-01   -5.7388846051E-01   -5.7306626952E-01   -5.7224643101E-01
-5.7142893492E-01   -5.7061377121E-01   -5.6980092991E-01   -5.6899040113E-01
-5.6818217500E-01   -5.6737624172E-01   -5.6657259155E-01   -5.6577121481E-01