<UPF version="2.0.1">
<PP_INFO>

This pseudopotential file has been produced using the code
ONCVPSP  (Optimized Norm-Conservinng Vanderbilt PSeudopotential)
fully-relativistic version 3.3.0 08/16/2017 by D. R. Hamann
The code is available through a link at URL www.mat-simresearch.com.
Documentation with the package provides a full discription of the
input data below.


While it is not required under the terms of the GNU GPL, it is
suggested that you cite D. R. Hamann, Phys. Rev. B 88, 085117 (2013)
in any publication using these pseudopotentials.

<PP_INPUTFILE>
# ATOM AND REFERENCE CONFIGURATION
# atsym  z   nc   nv     iexc    psfile
Ne 10.00    1    2 -116133      upf
#
#   n    l    f        energy (Ha)
1    0    2.00
2    0    2.00
2    1    6.00
#
# PSEUDOPOTENTIAL AND OPTIMIZATION
# lmax
1
#
#   l,   rc,     ep,   ncon, nbas, qcut
0   1.30000  -1.33029    4    7   8.00000
1   1.70000  -0.48638    4    7   8.00000
#
# LOCAL POTENTIAL
# lloc, lpopt,  rc(5),   dvloc0
4    5   1.30000      0.00000
#
# VANDERBILT-KLEINMAN-BYLANDER PROJECTORs
# l, nproj, debl
0    2   1.50000
1    2   1.49874
#
# MODEL CORE CHARGE
# icmod, fcfact, rcfact
0   0.00000   0.00000
#
# LOG DERIVATIVE ANALYSIS
# epsh1, epsh2, depsh
-12.00   12.00    0.02
#
# OUTPUT GRID
# rlmax, drl
4.00    0.01
#
# TEST CONFIGURATIONS
# ncnf
0
# nvcnf
#   n    l    f
</PP_INPUTFILE>
</PP_INFO>
<!--                               -->
<!-- END OF HUMAN READABLE SECTION -->
<!--                               -->
<PP_HEADER
generated="Generated using ONCVPSP code by D. R. Hamann"
author="anonymous"
date="180509"
comment=""
element="Ne"
pseudo_type="NC"
relativistic="full"
is_ultrasoft="F"
is_paw="F"
is_coulomb="F"
has_so="T"
has_wfc="F"
has_gipaw="F"
core_correction="F"
functional="PBESOL"
z_valence="    8.00"
total_psenergy="  -6.65749093348E+01"
rho_cutoff="   7.57000000000E+00"
l_max="1"
l_local="-1"
mesh_size="   758"
number_of_wfc="3"
number_of_proj="6"/>
<PP_MESH>
<PP_R type="real"  size=" 758" columns="8">
0.0000    0.0100    0.0200    0.0300    0.0400    0.0500    0.0600    0.0700
0.0800    0.0900    0.1000    0.1100    0.1200    0.1300    0.1400    0.1500
0.1600    0.1700    0.1800    0.1900    0.2000    0.2100    0.2200    0.2300
0.2400    0.2500    0.2600    0.2700    0.2800    0.2900    0.3000    0.3100
0.3200    0.3300    0.3400    0.3500    0.3600    0.3700    0.3800    0.3900
0.4000    0.4100    0.4200    0.4300    0.4400    0.4500    0.4600    0.4700
0.4800    0.4900    0.5000    0.5100    0.5200    0.5300    0.5400    0.5500
0.5600    0.5700    0.5800    0.5900    0.6000    0.6100    0.6200    0.6300
0.6400    0.6500    0.6600    0.6700    0.6800    0.6900    0.7000    0.7100
0.7200    0.7300    0.7400    0.7500    0.7600    0.7700    0.7800    0.7900
0.8000    0.8100    0.8200    0.8300    0.8400    0.8500    0.8600    0.8700
0.8800    0.8900    0.9000    0.9100    0.9200    0.9300    0.9400    0.9500
0.9600    0.9700    0.9800    0.9900    1.0000    1.0100    1.0200    1.0300
1.0400    1.0500    1.0600    1.0700    1.0800    1.0900    1.1000    1.1100
1.1200    1.1300    1.1400    1.1500    1.1600    1.1700    1.1800    1.1900
1.2000    1.2100    1.2200    1.2300    1.2400    1.2500    1.2600    1.2700
1.2800    1.2900    1.3000    1.3100    1.3200    1.3300    1.3400    1.3500
1.3600    1.3700    1.3800    1.3900    1.4000    1.4100    1.4200    1.4300
1.4400    1.4500    1.4600    1.4700    1.4800    1.4900    1.5000    1.5100
1.5200    1.5300    1.5400    1.5500    1.5600    1.5700    1.5800    1.5900
1.6000    1.6100    1.6200    1.6300    1.6400    1.6500    1.6600    1.6700
1.6800    1.6900    1.7000    1.7100    1.7200    1.7300    1.7400    1.7500
1.7600    1.7700    1.7800    1.7900    1.8000    1.8100    1.8200    1.8300
1.8400    1.8500    1.8600    1.8700    1.8800    1.8900    1.9000    1.9100
1.9200    1.9300    1.9400    1.9500    1.9600    1.9700    1.9800    1.9900
2.0000    2.0100    2.0200    2.0300    2.0400    2.0500    2.0600    2.0700
2.0800    2.0900    2.1000    2.1100    2.1200    2.1300    2.1400    2.1500
2.1600    2.1700    2.1800    2.1900    2.2000    2.2100    2.2200    2.2300
2.2400    2.2500    2.2600    2.2700    2.2800    2.2900    2.3000    2.3100
2.3200    2.3300    2.3400    2.3500    2.3600    2.3700    2.3800    2.3900
2.4000    2.4100    2.4200    2.4300    2.4400    2.4500    2.4600    2.4700
2.4800    2.4900    2.5000    2.5100    2.5200    2.5300    2.5400    2.5500
2.5600    2.5700    2.5800    2.5900    2.6000    2.6100    2.6200    2.6300
2.6400    2.6500    2.6600    2.6700    2.6800    2.6900    2.7000    2.7100
2.7200    2.7300    2.7400    2.7500    2.7600    2.7700    2.7800    2.7900
2.8000    2.8100    2.8200    2.8300    2.8400    2.8500    2.8600    2.8700
2.8800    2.8900    2.9000    2.9100    2.9200    2.9300    2.9400    2.9500
2.9600    2.9700    2.9800    2.9900    3.0000    3.0100    3.0200    3.0300
3.0400    3.0500    3.0600    3.0700    3.0800    3.0900    3.1000    3.1100
3.1200    3.1300    3.1400    3.1500    3.1600    3.1700    3.1800    3.1900
3.2000    3.2100    3.2200    3.2300    3.2400    3.2500    3.2600    3.2700
3.2800    3.2900    3.3000    3.3100    3.3200    3.3300    3.3400    3.3500
3.3600    3.3700    3.3800    3.3900    3.4000    3.4100    3.4200    3.4300
3.4400    3.4500    3.4600    3.4700    3.4800    3.4900    3.5000    3.5100
3.5200    3.5300    3.5400    3.5500    3.5600    3.5700    3.5800    3.5900
3.6000    3.6100    3.6200    3.6300    3.6400    3.6500    3.6600    3.6700
3.6800    3.6900    3.7000    3.7100    3.7200    3.7300    3.7400    3.7500
3.7600    3.7700    3.7800    3.7900    3.8000    3.8100    3.8200    3.8300
3.8400    3.8500    3.8600    3.8700    3.8800    3.8900    3.9000    3.9100
3.9200    3.9300    3.9400    3.9500    3.9600    3.9700    3.9800    3.9900
4.0000    4.0100    4.0200    4.0300    4.0400    4.0500    4.0600    4.0700
4.0800    4.0900    4.1000    4.1100    4.1200    4.1300    4.1400    4.1500
4.1600    4.1700    4.1800    4.1900    4.2000    4.2100    4.2200    4.2300
4.2400    4.2500    4.2600    4.2700    4.2800    4.2900    4.3000    4.3100
4.3200    4.3300    4.3400    4.3500    4.3600    4.3700    4.3800    4.3900
4.4000    4.4100    4.4200    4.4300    4.4400    4.4500    4.4600    4.4700
4.4800    4.4900    4.5000    4.5100    4.5200    4.5300    4.5400    4.5500
4.5600    4.5700    4.5800    4.5900    4.6000    4.6100    4.6200    4.6300
4.6400    4.6500    4.6600    4.6700    4.6800    4.6900    4.7000    4.7100
4.7200    4.7300    4.7400    4.7500    4.7600    4.7700    4.7800    4.7900
4.8000    4.8100    4.8200    4.8300    4.8400    4.8500    4.8600    4.8700
4.8800    4.8900    4.9000    4.9100    4.9200    4.9300    4.9400    4.9500
4.9600    4.9700    4.9800    4.9900    5.0000    5.0100    5.0200    5.0300
5.0400    5.0500    5.0600    5.0700    5.0800    5.0900    5.1000    5.1100
5.1200    5.1300    5.1400    5.1500    5.1600    5.1700    5.1800    5.1900
5.2000    5.2100    5.2200    5.2300    5.2400    5.2500    5.2600    5.2700
5.2800    5.2900    5.3000    5.3100    5.3200    5.3300    5.3400    5.3500
5.3600    5.3700    5.3800    5.3900    5.4000    5.4100    5.4200    5.4300
5.4400    5.4500    5.4600    5.4700    5.4800    5.4900    5.5000    5.5100
5.5200    5.5300    5.5400    5.5500    5.5600    5.5700    5.5800    5.5900
5.6000    5.6100    5.6200    5.6300    5.6400    5.6500    5.6600    5.6700
5.6800    5.6900    5.7000    5.7100    5.7200    5.7300    5.7400    5.7500
5.7600    5.7700    5.7800    5.7900    5.8000    5.8100    5.8200    5.8300
5.8400    5.8500    5.8600    5.8700    5.8800    5.8900    5.9000    5.9100
5.9200    5.9300    5.9400    5.9500    5.9600    5.9700    5.9800    5.9900
6.0000    6.0100    6.0200    6.0300    6.0400    6.0500    6.0600    6.0700
6.0800    6.0900    6.1000    6.1100    6.1200    6.1300    6.1400    6.1500
6.1600    6.1700    6.1800    6.1900    6.2000    6.2100    6.2200    6.2300
6.2400    6.2500    6.2600    6.2700    6.2800    6.2900    6.3000    6.3100
6.3200    6.3300    6.3400    6.3500    6.3600    6.3700    6.3800    6.3900
6.4000    6.4100    6.4200    6.4300    6.4400    6.4500    6.4600    6.4700
6.4800    6.4900    6.5000    6.5100    6.5200    6.5300    6.5400    6.5500
6.5600    6.5700    6.5800    6.5900    6.6000    6.6100    6.6200    6.6300
6.6400    6.6500    6.6600    6.6700    6.6800    6.6900    6.7000    6.7100
6.7200    6.7300    6.7400    6.7500    6.7600    6.7700    6.7800    6.7900
6.8000    6.8100    6.8200    6.8300    6.8400    6.8500    6.8600    6.8700
6.8800    6.8900    6.9000    6.9100    6.9200    6.9300    6.9400    6.9500
6.9600    6.9700    6.9800    6.9900    7.0000    7.0100    7.0200    7.0300
7.0400    7.0500    7.0600    7.0700    7.0800    7.0900    7.1000    7.1100
7.1200    7.1300    7.1400    7.1500    7.1600    7.1700    7.1800    7.1900
7.2000    7.2100    7.2200    7.2300    7.2400    7.2500    7.2600    7.2700
7.2800    7.2900    7.3000    7.3100    7.3200    7.3300    7.3400    7.3500
7.3600    7.3700    7.3800    7.3900    7.4000    7.4100    7.4200    7.4300
7.4400    7.4500    7.4600    7.4700    7.4800    7.4900    7.5000    7.5100
7.5200    7.5300    7.5400    7.5500    7.5600    7.5700
</PP_R>
<PP_RAB type="real"  size=" 758" columns="8">
0.0100    0.0100    0.0100    0.0100    0.0100    0.0100    0.0100    0.0100
0.0100    0.0100    0.0100    0.0100    0.0100    0.0100    0.0100    0.0100
0.0100    0.0100    0.0100    0.0100    0.0100    0.0100    0.0100    0.0100
0.0100    0.0100    0.0100    0.0100    0.0100    0.0100    0.0100    0.0100
0.0100    0.0100    0.0100    0.0100    0.0100    0.0100    0.0100    0.0100
0.0100    0.0100    0.0100    0.0100    0.0100    0.0100    0.0100    0.0100
0.0100    0.0100    0.0100    0.0100    0.0100    0.0100    0.0100    0.0100
0.0100    0.0100    0.0100    0.0100    0.0100    0.0100    0.0100    0.0100
0.0100    0.0100    0.0100    0.0100    0.0100    0.0100    0.0100    0.0100
0.0100    0.0100    0.0100    0.0100    0.0100    0.0100    0.0100    0.0100
0.0100    0.0100    0.0100    0.0100    0.0100    0.0100    0.0100    0.0100
0.0100    0.0100    0.0100    0.0100    0.0100    0.0100    0.0100    0.0100
0.0100    0.0100    0.0100    0.0100    0.0100    0.0100    0.0100    0.0100
0.0100    0.0100    0.0100    0.0100    0.0100    0.0100    0.0100    0.0100
0.0100    0.0100    0.0100    0.0100    0.0100    0.0100    0.0100    0.0100
0.0100    0.0100    0.0100    0.0100    0.0100    0.0100    0.0100    0.0100
0.0100    0.0100    0.0100    0.0100    0.0100    0.0100    0.0100    0.0100
0.0100    0.0100    0.0100    0.0100    0.0100    0.0100    0.0100    0.0100
0.0100    0.0100    0.0100    0.0100    0.0100    0.0100    0.0100    0.0100
0.0100    0.0100    0.0100    0.0100    0.0100    0.0100    0.0100    0.0100
0.0100    0.0100    0.0100    0.0100    0.0100    0.0100    0.0100    0.0100
0.0100    0.0100    0.0100    0.0100    0.0100    0.0100    0.0100    0.0100
0.0100    0.0100    0.0100    0.0100    0.0100    0.0100    0.0100    0.0100
0.0100    0.0100    0.0100    0.0100    0.0100    0.0100    0.0100    0.0100
0.0100    0.0100    0.0100    0.0100    0.0100    0.0100    0.0100    0.0100
0.0100    0.0100    0.0100    0.0100    0.0100    0.0100    0.0100    0.0100
0.0100    0.0100    0.0100    0.0100    0.0100    0.0100    0.0100    0.0100
0.0100    0.0100    0.0100    0.0100    0.0100    0.0100    0.0100    0.0100
0.0100    0.0100    0.0100    0.0100    0.0100    0.0100    0.0100    0.0100
0.0100    0.0100    0.0100    0.0100    0.0100    0.0100    0.0100    0.0100
0.0100    0.0100    0.0100    0.0100    0.0100    0.0100    0.0100    0.0100
0.0100    0.0100    0.0100    0.0100    0.0100    0.0100    0.0100    0.0100
0.0100    0.0100    0.0100    0.0100    0.0100    0.0100    0.0100    0.0100
0.0100    0.0100    0.0100    0.0100    0.0100    0.0100    0.0100    0.0100
0.0100    0.0100    0.0100    0.0100    0.0100    0.0100    0.0100    0.0100
0.0100    0.0100    0.0100    0.0100    0.0100    0.0100    0.0100    0.0100
0.0100    0.0100    0.0100    0.0100    0.0100    0.0100    0.0100    0.0100
0.0100    0.0100    0.0100    0.0100    0.0100    0.0100    0.0100    0.0100
0.0100    0.0100    0.0100    0.0100    0.0100    0.0100    0.0100    0.0100
0.0100    0.0100    0.0100    0.0100    0.0100    0.0100    0.0100    0.0100
0.0100    0.0100    0.0100    0.0100    0.0100    0.0100    0.0100    0.0100
0.0100    0.0100    0.0100    0.0100    0.0100    0.0100    0.0100    0.0100
0.0100    0.0100    0.0100    0.0100    0.0100    0.0100    0.0100    0.0100
0.0100    0.0100    0.0100    0.0100    0.0100    0.0100    0.0100    0.0100
0.0100    0.0100    0.0100    0.0100    0.0100    0.0100    0.0100    0.0100
0.0100    0.0100    0.0100    0.0100    0.0100    0.0100    0.0100    0.0100
0.0100    0.0100    0.0100    0.0100    0.0100    0.0100    0.0100    0.0100
0.0100    0.0100    0.0100    0.0100    0.0100    0.0100    0.0100    0.0100
0.0100    0.0100    0.0100    0.0100    0.0100    0.0100    0.0100    0.0100
0.0100    0.0100    0.0100    0.0100    0.0100    0.0100    0.0100    0.0100
0.0100    0.0100    0.0100    0.0100    0.0100    0.0100    0.0100    0.0100
0.0100    0.0100    0.0100    0.0100    0.0100    0.0100    0.0100    0.0100
0.0100    0.0100    0.0100    0.0100    0.0100    0.0100    0.0100    0.0100
0.0100    0.0100    0.0100    0.0100    0.0100    0.0100    0.0100    0.0100
0.0100    0.0100    0.0100    0.0100    0.0100    0.0100    0.0100    0.0100
0.0100    0.0100    0.0100    0.0100    0.0100    0.0100    0.0100    0.0100
0.0100    0.0100    0.0100    0.0100    0.0100    0.0100    0.0100    0.0100
0.0100    0.0100    0.0100    0.0100    0.0100    0.0100    0.0100    0.0100
0.0100    0.0100    0.0100    0.0100    0.0100    0.0100    0.0100    0.0100
0.0100    0.0100    0.0100    0.0100    0.0100    0.0100    0.0100    0.0100
0.0100    0.0100    0.0100    0.0100    0.0100    0.0100    0.0100    0.0100
0.0100    0.0100    0.0100    0.0100    0.0100    0.0100    0.0100    0.0100
0.0100    0.0100    0.0100    0.0100    0.0100    0.0100    0.0100    0.0100
0.0100    0.0100    0.0100    0.0100    0.0100    0.0100    0.0100    0.0100
0.0100    0.0100    0.0100    0.0100    0.0100    0.0100    0.0100    0.0100
0.0100    0.0100    0.0100    0.0100    0.0100    0.0100    0.0100    0.0100
0.0100    0.0100    0.0100    0.0100    0.0100    0.0100    0.0100    0.0100
0.0100    0.0100    0.0100    0.0100    0.0100    0.0100    0.0100    0.0100
0.0100    0.0100    0.0100    0.0100    0.0100    0.0100    0.0100    0.0100
0.0100    0.0100    0.0100    0.0100    0.0100    0.0100    0.0100    0.0100
0.0100    0.0100    0.0100    0.0100    0.0100    0.0100    0.0100    0.0100
0.0100    0.0100    0.0100    0.0100    0.0100    0.0100    0.0100    0.0100
0.0100    0.0100    0.0100    0.0100    0.0100    0.0100    0.0100    0.0100
0.0100    0.0100    0.0100    0.0100    0.0100    0.0100    0.0100    0.0100
0.0100    0.0100    0.0100    0.0100    0.0100    0.0100    0.0100    0.0100
0.0100    0.0100    0.0100    0.0100    0.0100    0.0100    0.0100    0.0100
0.0100    0.0100    0.0100    0.0100    0.0100    0.0100    0.0100    0.0100
0.0100    0.0100    0.0100    0.0100    0.0100    0.0100    0.0100    0.0100
0.0100    0.0100    0.0100    0.0100    0.0100    0.0100    0.0100    0.0100
0.0100    0.0100    0.0100    0.0100    0.0100    0.0100    0.0100    0.0100
0.0100    0.0100    0.0100    0.0100    0.0100    0.0100    0.0100    0.0100
0.0100    0.0100    0.0100    0.0100    0.0100    0.0100    0.0100    0.0100
0.0100    0.0100    0.0100    0.0100    0.0100    0.0100    0.0100    0.0100
0.0100    0.0100    0.0100    0.0100    0.0100    0.0100    0.0100    0.0100
0.0100    0.0100    0.0100    0.0100    0.0100    0.0100    0.0100    0.0100
0.0100    0.0100    0.0100    0.0100    0.0100    0.0100    0.0100    0.0100
0.0100    0.0100    0.0100    0.0100    0.0100    0.0100    0.0100    0.0100
0.0100    0.0100    0.0100    0.0100    0.0100    0.0100    0.0100    0.0100
0.0100    0.0100    0.0100    0.0100    0.0100    0.0100    0.0100    0.0100
0.0100    0.0100    0.0100    0.0100    0.0100    0.0100    0.0100    0.0100
0.0100    0.0100    0.0100    0.0100    0.0100    0.0100    0.0100    0.0100
0.0100    0.0100    0.0100    0.0100    0.0100    0.0100    0.0100    0.0100
0.0100    0.0100    0.0100    0.0100    0.0100    0.0100    0.0100    0.0100
0.0100    0.0100    0.0100    0.0100    0.0100    0.0100    0.0100    0.0100
0.0100    0.0100    0.0100    0.0100    0.0100    0.0100
</PP_RAB>
</PP_MESH>
<PP_LOCAL type="real"  size=" 758" columns="4">
-2.6754444928E+01   -2.6759571953E+01   -2.6773107574E+01   -2.6792110958E+01
-2.6812376464E+01   -2.6829717328E+01   -2.6840755674E+01   -2.6843278329E+01
-2.6836217945E+01   -2.6819419383E+01   -2.6793341955E+01   -2.6758791003E+01
-2.6716716629E+01   -2.6668081984E+01   -2.6613787772E+01   -2.6554636083E+01
-2.6491318910E+01   -2.6424420586E+01   -2.6354427033E+01   -2.6281737545E+01
-2.6206676722E+01   -2.6129505413E+01   -2.6050430221E+01   -2.5969611509E+01
-2.5887170036E+01   -2.5803192428E+01   -2.5717735699E+01   -2.5630831035E+01
-2.5542487014E+01   -2.5452692433E+01   -2.5361418861E+01   -2.5268623042E+01
-2.5174249226E+01   -2.5078231493E+01   -2.4980496122E+01   -2.4880964015E+01
-2.4779553184E+01   -2.4676181274E+01   -2.4570768085E+01   -2.4463238032E+01
-2.4353522480E+01   -2.4241561883E+01   -2.4127307652E+01   -2.4010723697E+01
-2.3891787587E+01   -2.3770491296E+01   -2.3646841532E+01   -2.3520859648E+01
-2.3392581172E+01   -2.3262054993E+01   -2.3129342278E+01   -2.2994515168E+01
-2.2857655334E+01   -2.2718852467E+01   -2.2578202750E+01   -2.2435807382E+01
-2.2291771182E+01   -2.2146201329E+01   -2.1999206231E+01   -2.1850894558E+01
-2.1701374434E+01   -2.1550752772E+01   -2.1399134766E+01   -2.1246623495E+01
-2.1093319655E+01   -2.0939321375E+01   -2.0784724118E+01   -2.0629620635E+01
-2.0474100978E+01   -2.0318252538E+01   -2.0162160107E+01   -2.0005905959E+01
-1.9849569930E+01   -1.9693229506E+01   -1.9536959901E+01   -1.9380834133E+01
-1.9224923088E+01   -1.9069295578E+01   -1.8914018381E+01   -1.8759156283E+01
-1.8604772102E+01   -1.8450926700E+01   -1.8297679000E+01   -1.8145085984E+01
-1.7993202687E+01   -1.7842082197E+01   -1.7691775637E+01   -1.7542332153E+01
-1.7393798903E+01   -1.7246221036E+01   -1.7099641682E+01   -1.6954101939E+01
-1.6809640857E+01   -1.6666295435E+01   -1.6524100616E+01   -1.6383089282E+01
-1.6243292260E+01   -1.6104738330E+01   -1.5967454237E+01   -1.5831464710E+01
-1.5696792480E+01   -1.5563458314E+01   -1.5431481041E+01   -1.5300877592E+01
-1.5171663039E+01   -1.5043850638E+01   -1.4917451876E+01   -1.4792476517E+01
-1.4668932655E+01   -1.4546826757E+01   -1.4426163716E+01   -1.4306946894E+01
-1.4189178166E+01   -1.4072857960E+01   -1.3957985290E+01   -1.3844557786E+01
-1.3732571717E+01   -1.3622022005E+01   -1.3512902237E+01   -1.3405204664E+01
-1.3298920199E+01   -1.3194038401E+01   -1.3090547459E+01   -1.2988434171E+01
-1.2887683902E+01   -1.2788280570E+01   -1.2690206594E+01   -1.2593442876E+01
-1.2497968558E+01   -1.2403761134E+01   -1.2310796703E+01   -1.2219051695E+01
-1.2128503854E+01   -1.2039131987E+01   -1.1950914306E+01   -1.1863826999E+01
-1.1777846178E+01   -1.1692948876E+01   -1.1609114179E+01   -1.1526322443E+01
-1.1444554938E+01   -1.1363794127E+01   -1.1284023601E+01   -1.1205228036E+01
-1.1127393172E+01   -1.1050505785E+01   -1.0974553656E+01   -1.0899525528E+01
-1.0825411069E+01   -1.0752200820E+01   -1.0679886135E+01   -1.0608459119E+01
-1.0537912555E+01   -1.0468239822E+01   -1.0399434802E+01   -1.0331491786E+01
-1.0264405365E+01   -1.0198170318E+01   -1.0132781491E+01   -1.0068233672E+01
-1.0004521469E+01   -9.9416391961E+00   -9.8795806902E+00   -9.8183392180E+00
-9.7579073566E+00   -9.6982768917E+00   -9.6394394328E+00   -9.5813858165E+00
-9.5241054401E+00   -9.4675848708E+00   -9.4118021670E+00   -9.3567268007E+00
-9.3023251404E+00   -9.2485640217E+00   -9.1954185594E+00   -9.1428757079E+00
-9.0909267450E+00   -9.0395638176E+00   -8.9887793344E+00   -8.9385630051E+00
-8.8889041823E+00   -8.8397939276E+00   -8.7912234190E+00   -8.7431837615E+00
-8.6956662751E+00   -8.6486624916E+00   -8.6021641285E+00   -8.5561630778E+00
-8.5106514033E+00   -8.4656213370E+00   -8.4210652743E+00   -8.3769757701E+00
-8.3333455344E+00   -8.2901674281E+00   -8.2474344595E+00   -8.2051397801E+00
-8.1632766815E+00   -8.1218385911E+00   -8.0808190695E+00   -8.0402118065E+00
-8.0000106180E+00   -7.9602094433E+00   -7.9208023414E+00   -7.8817834886E+00
-7.8431471753E+00   -7.8048878032E+00   -7.7669998829E+00   -7.7294780309E+00
-7.6923169675E+00   -7.6555115136E+00   -7.6190565893E+00   -7.5829472105E+00
-7.5471784875E+00   -7.5117456223E+00   -7.4766439065E+00   -7.4418687194E+00
-7.4074155259E+00   -7.3732798744E+00   -7.3394573950E+00   -7.3059437978E+00
-7.2727348706E+00   -7.2398264776E+00   -7.2072145575E+00   -7.1748951220E+00
-7.1428642537E+00   -7.1111181052E+00   -7.0796528968E+00   -7.0484649158E+00
-7.0175505145E+00   -6.9869061087E+00   -6.9565281768E+00   -6.9264132581E+00
-6.8965579516E+00   -6.8669589145E+00   -6.8376128615E+00   -6.8085165629E+00
-6.7796668439E+00   -6.7510605831E+00   -6.7226947119E+00   -6.6945662127E+00
-6.6666721184E+00   -6.6390095112E+00   -6.6115755212E+00   -6.5843673262E+00
-6.5573821499E+00   -6.5306172615E+00   -6.5040699746E+00   -6.4777376462E+00
-6.4516176761E+00   -6.4257075056E+00   -6.4000046173E+00   -6.3745065336E+00
-6.3492108164E+00   -6.3241150661E+00   -6.2992169208E+00   -6.2745140559E+00
-6.2500041829E+00   -6.2256850489E+00   -6.2015544361E+00   -6.1776101609E+00
-6.1538500731E+00   -6.1302720557E+00   -6.1068740239E+00   -6.0836539247E+00
-6.0606097361E+00   -6.0377394666E+00   -6.0150411548E+00   -5.9925128685E+00
-5.9701527046E+00   -5.9479587879E+00   -5.9259292714E+00   -5.9040623351E+00
-5.8823561858E+00   -5.8608090567E+00   -5.8394192066E+00   -5.8181849198E+00
-5.7971045054E+00   -5.7761762969E+00   -5.7553986517E+00   -5.7347699509E+00
-5.7142885987E+00   -5.6939530220E+00   -5.6737616699E+00   -5.6537130136E+00
-5.6338055457E+00   -5.6140377800E+00   -5.5944082511E+00   -5.5749155140E+00
-5.5555581439E+00   -5.5363347354E+00   -5.5172439028E+00   -5.4982842793E+00
-5.4794545169E+00   -5.4607532860E+00   -5.4421792749E+00   -5.4237311899E+00
-5.4054077548E+00   -5.3872077104E+00   -5.3691298145E+00   -5.3511728416E+00
-5.3333355825E+00   -5.3156168439E+00   -5.2980154485E+00   -5.2805302344E+00
-5.2631600552E+00   -5.2459037794E+00   -5.2287602901E+00   -5.2117284854E+00
-5.1948072773E+00   -5.1779955921E+00   -5.1612923698E+00   -5.1446965642E+00
-5.1282071425E+00   -5.1118230849E+00   -5.0955433849E+00   -5.0793670484E+00
-5.0632930942E+00   -5.0473205534E+00   -5.0314484693E+00   -5.0156758970E+00
-5.0000019037E+00   -4.9844255680E+00   -4.9689459802E+00   -4.9535622415E+00
-4.9382734645E+00   -4.9230787727E+00   -4.9079773001E+00   -4.8929681916E+00
-4.8780506023E+00   -4.8632236978E+00   -4.8484866536E+00   -4.8338386553E+00
-4.8192788982E+00   -4.8048065873E+00   -4.7904209373E+00   -4.7761211719E+00
-4.7619065245E+00   -4.7477762371E+00   -4.7337295612E+00   -4.7197657568E+00
-4.7058840925E+00   -4.6920838458E+00   -4.6783643026E+00   -4.6647247568E+00
-4.6511645109E+00   -4.6376828753E+00   -4.6242791683E+00   -4.6109527163E+00
-4.5977028533E+00   -4.5845289208E+00   -4.5714302680E+00   -4.5584062516E+00
-4.5454562354E+00   -4.5325795905E+00   -4.5197756951E+00   -4.5070439344E+00
-4.4943837005E+00   -4.4817943925E+00   -4.4692754158E+00   -4.4568261828E+00
-4.4444461122E+00   -4.4321346294E+00   -4.4198911658E+00   -4.4077151595E+00
-4.3956060543E+00   -4.3835633004E+00   -4.3715863539E+00   -4.3596746769E+00
-4.3478277373E+00   -4.3360450088E+00   -4.3243259708E+00   -4.3126701081E+00
-4.3010769115E+00   -4.2895458767E+00   -4.2780765052E+00   -4.2666683037E+00
-4.2553207841E+00   -4.2440334636E+00   -4.2328058643E+00   -4.2216375136E+00
-4.2105279436E+00   -4.1994766915E+00   -4.1884832995E+00   -4.1775473141E+00
-4.1666682869E+00   -4.1558457742E+00   -4.1450793366E+00   -4.1343685395E+00
-4.1237129527E+00   -4.1131121503E+00   -4.1025657110E+00   -4.0920732176E+00
-4.0816342573E+00   -4.0712484215E+00   -4.0609153056E+00   -4.0506345092E+00
-4.0404056360E+00   -4.0302282935E+00   -4.0201020935E+00   -4.0100266513E+00
-4.0000015862E+00   -3.9900265215E+00   -3.9801010838E+00   -3.9702249039E+00
-3.9603976159E+00   -3.9506188577E+00   -3.9408882706E+00   -3.9312054996E+00
-3.9215701931E+00   -3.9119820030E+00   -3.9024405845E+00   -3.8929455962E+00
-3.8834967000E+00   -3.8740935611E+00   -3.8647358479E+00   -3.8554232321E+00
-3.8461553885E+00   -3.8369319948E+00   -3.8277527322E+00   -3.8186172846E+00
-3.8095253391E+00   -3.8004765857E+00   -3.7914707173E+00   -3.7825074297E+00
-3.7735864218E+00   -3.7647073950E+00   -3.7558700538E+00   -3.7470741052E+00
-3.7383192590E+00   -3.7296052280E+00   -3.7209317273E+00   -3.7122984748E+00
-3.7037051910E+00   -3.6951515990E+00   -3.6866374244E+00   -3.6781623953E+00
-3.6697262426E+00   -3.6613286991E+00   -3.6529695005E+00   -3.6446483848E+00
-3.6363650923E+00   -3.6281193657E+00   -3.6199109501E+00   -3.6117395926E+00
-3.6036050431E+00   -3.5955070533E+00   -3.5874453773E+00   -3.5794197713E+00
-3.5714299940E+00   -3.5634758057E+00   -3.5555569694E+00   -3.5476732499E+00
-3.5398244140E+00   -3.5320102307E+00   -3.5242304711E+00   -3.5164849083E+00
-3.5087733171E+00   -3.5010954747E+00   -3.4934511599E+00   -3.4858401536E+00
-3.4782622387E+00   -3.4707171997E+00   -3.4632048231E+00   -3.4557248974E+00
-3.4482772127E+00   -3.4408615610E+00   -3.4334777361E+00   -3.4261255336E+00
-3.4188047507E+00   -3.4115151864E+00   -3.4042566415E+00   -3.3970289185E+00
-3.3898318213E+00   -3.3826651559E+00   -3.3755287295E+00   -3.3684223511E+00
-3.3613458315E+00   -3.3542989828E+00   -3.3472816188E+00   -3.3402935548E+00
-3.3333346077E+00   -3.3264045959E+00   -3.3195033394E+00   -3.3126306594E+00
-3.3057863789E+00   -3.2989703222E+00   -3.2921823152E+00   -3.2854221849E+00
-3.2786897600E+00   -3.2719848707E+00   -3.2653073481E+00   -3.2586570253E+00
-3.2520337362E+00   -3.2454373165E+00   -3.2388676029E+00   -3.2323244336E+00
-3.2258076480E+00   -3.2193170869E+00   -3.2128525923E+00   -3.2064140074E+00
-3.2000011769E+00   -3.1936139465E+00   -3.1872521632E+00   -3.1809156752E+00
-3.1746043320E+00   -3.1683179843E+00   -3.1620564837E+00   -3.1558196833E+00
-3.1496074373E+00   -3.1434196008E+00   -3.1372560304E+00   -3.1311165835E+00
-3.1250011188E+00   -3.1189094961E+00   -3.1128415762E+00   -3.1067972210E+00
-3.1007762935E+00   -3.0947786578E+00   -3.0888041790E+00   -3.0828527233E+00
-3.0769241577E+00   -3.0710183506E+00   -3.0651351710E+00   -3.0592744893E+00
-3.0534361765E+00   -3.0476201050E+00   -3.0418261478E+00   -3.0360541790E+00
-3.0303040738E+00   -3.0245757080E+00   -3.0188689588E+00   -3.0131837039E+00
-3.0075198221E+00   -3.0018771932E+00   -2.9962556977E+00   -2.9906552171E+00
-2.9850756339E+00   -2.9795168312E+00   -2.9739786932E+00   -2.9684611049E+00
-2.9629639521E+00   -2.9574871215E+00   -2.9520305006E+00   -2.9465939778E+00
-2.9411774421E+00   -2.9357807837E+00   -2.9304038933E+00   -2.9250466624E+00
-2.9197089834E+00   -2.9143907496E+00   -2.9090918548E+00   -2.9038121937E+00
-2.8985516619E+00   -2.8933101555E+00   -2.8880875714E+00   -2.8828838076E+00
-2.8776987622E+00   -2.8725323347E+00   -2.8673844248E+00   -2.8622549332E+00
-2.8571437613E+00   -2.8520508110E+00   -2.8469759850E+00   -2.8419191869E+00
-2.8368803207E+00   -2.8318592912E+00   -2.8268560038E+00   -2.8218703648E+00
-2.8169022808E+00   -2.8119516593E+00   -2.8070184084E+00   -2.8021024369E+00
-2.7972036541E+00   -2.7923219701E+00   -2.7874572953E+00   -2.7826095413E+00
-2.7777786197E+00   -2.7729644430E+00   -2.7681669245E+00   -2.7633859776E+00
-2.7586215169E+00   -2.7538734570E+00   -2.7491417135E+00   -2.7444262024E+00
-2.7397268403E+00   -2.7350435444E+00   -2.7303762325E+00   -2.7257248228E+00
-2.7210892343E+00   -2.7164693863E+00   -2.7118651989E+00   -2.7072765924E+00
-2.7027034881E+00   -2.6981458073E+00   -2.6936034723E+00   -2.6890764057E+00
-2.6845645306E+00   -2.6800677706E+00   -2.6755860500E+00   -2.6711192935E+00
-2.6666674261E+00   -2.6622303736E+00   -2.6578080621E+00   -2.6534004184E+00
-2.6490073695E+00   -2.6446288432E+00   -2.6402647674E+00   -2.6359150708E+00
-2.6315796824E+00   -2.6272585318E+00   -2.6229515489E+00   -2.6186586641E+00
-2.6143798085E+00   -2.6101149132E+00   -2.6058639100E+00   -2.6016267313E+00
-2.5974033097E+00   -2.5931935783E+00   -2.5889974707E+00   -2.5848149207E+00
-2.5806458629E+00   -2.5764902320E+00   -2.5723479633E+00   -2.5682189924E+00
-2.5641032554E+00   -2.5600006888E+00   -2.5559112295E+00   -2.5518348147E+00
-2.5477713821E+00   -2.5437208699E+00   -2.5396832164E+00   -2.5356583606E+00
-2.5316462417E+00   -2.5276467993E+00   -2.5236599735E+00   -2.5196857047E+00
-2.5157239335E+00   -2.5117746013E+00   -2.5078376494E+00   -2.5039130198E+00
-2.5000006546E+00   -2.4961004965E+00   -2.4922124885E+00   -2.4883365739E+00
-2.4844726963E+00   -2.4806207997E+00   -2.4767808285E+00   -2.4729527274E+00
-2.4691364415E+00   -2.4653319161E+00   -2.4615390970E+00   -2.4577579301E+00
-2.4539883620E+00   -2.4502303393E+00   -2.4464838090E+00   -2.4427487186E+00
-2.4390250156E+00   -2.4353126482E+00   -2.4316115645E+00   -2.4279217133E+00
-2.4242430435E+00   -2.4205755044E+00   -2.4169190455E+00   -2.4132736166E+00
-2.4096391680E+00   -2.4060156500E+00   -2.4024030136E+00   -2.3988012096E+00
-2.3952101895E+00   -2.3916299050E+00   -2.3880603079E+00   -2.3845013504E+00
-2.3809529852E+00   -2.3774151648E+00   -2.3738878425E+00   -2.3703709716E+00
-2.3668645056E+00   -2.3633683985E+00   -2.3598826044E+00   -2.3564070778E+00