<UPF version="2.0.1">
  <PP_INFO>

 Ag_ONCV_PBE_FR-1.0.upf

 This pseudopotential file has been produced using the code
 ONCVPSP  (Optimized Norm-Conservinng Vanderbilt PSeudopotential)
 fully-relativistic version 2.1.1, 03/26/2014 by D. R. Hamann
 The code is available through a link at URL www.mat-simresearch.com.
 Documentation with the package provides a full description of the
 input data below.

 While it is not required under the terms of the GNU GPL, it is
 suggested that you cite D. R. Hamann, Phys. Rev. B 88, 085117 (2013)
 in any publication using these pseudopotentials.

 -----

 This pseudopotential was produced with the SG15 1.0 and/or 1.1
 parameter sets, the Schlipf-Gygi norm-conserving pseudopotential
 library. For details of the construction and testing of the
 pseudopotential please refer to:

 M. Schlipf, F. Gygi, Comp. Phys. Comm. 196, 36 (2015)
 http://dx.doi.org/10.1016/j.cpc.2015.05.011

 The above authors kindly ask that you include this reference in all
 publications associated to this pseudopotential.

 Please note this fully-relativistic version does not employ the
 above self-consistent procedure at the fully-relativistic level.

 -----

 This pseudopotential was produced by Peter Scherpelz for the purpose
 of performing GW calculations with spin-orbit-coupling. Please see
 the publication:

 P. Scherpelz, M. Govoni, I. Hamada, G. Galli; J. Chem. Theory Comput. (2016)
 http://dx.doi.org/10.1021/acs.jctc.6b00114

 If you use these pseudopotentials in your work, we also kindly ask
 that you cite the above publication.

 -----

 This work is licensed under the Creative Commons Attribution-ShareAlike 
 4.0 International License. To view a copy of this license, visit 
 http://creativecommons.org/licenses/by-sa/4.0/ or send a letter to 
 Creative Commons, PO Box 1866, Mountain View, CA 94042, USA.

 The SG15 library is Copyright 2015 The Regents of the University of
 California.  Further modifications of these files are Copyright 2016
 Peter Scherpelz.
 
    <PP_INPUTFILE>
# ATOM AND REFERENCE CONFIGURATION
# atsym  z    nc    nv    iexc   psfile
  Ag 47.00     6     4     4      upf
#
#   n    l    f        energy (Ha)
    1    0    2.00
    2    0    2.00
    2    1    6.00
    3    0    2.00
    3    1    6.00
    3    2   10.00
    4    0    2.00
    4    1    6.00
    5    0    2.00
    4    2    9.00
#
# PSEUDOPOTENTIAL AND OPTIMIZATION
# lmax
    2
#
#   l,   rc,     ep,   ncon, nbas, qcut
    0    2.66   -3.64    5    8    5.99
    1    2.57   -2.24    5    8    6.43
    2    2.48   -0.38    5    8    7.31
#
# LOCAL POTENTIAL
# lloc, lpopt,  rc(5),   dvloc0
    4    5      1.54       0.00
#
# VANDERBILT-KLEINMAN-BYLANDER PROJECTORs
# l, nproj, debl
    0    2    3.4392
    1    2    2.1955
    2    2    1.4866
#
# MODEL CORE CHARGE
# icmod, fcfact
    0    0.00
#
# LOG DERIVATIVE ANALYSIS
# epsh1, epsh2, depsh
   -5.00    3.00    0.02
#
# OUTPUT GRID
# rlmax, drl
    6.00    0.01
#
# TEST CONFIGURATIONS
# ncnf
    0
# nvcnf
#   n    l    f
    </PP_INPUTFILE>
  </PP_INFO>
  <!--                               -->
  <!-- END OF HUMAN READABLE SECTION -->
  <!--                               -->
    <PP_HEADER
       generated="Generated using ONCVPSP code by D. R. Hamann"
       author="anonymous"
       date="150703"
       comment=""
       element="Ag"
       pseudo_type="NC"
       relativistic="full"
       is_ultrasoft="F"
       is_paw="F"
       is_coulomb="F"
       has_so="T"
       has_wfc="F"
       has_gipaw="F"
       core_correction="F"
       functional="PBE"
       z_valence="   19.00"
       total_psenergy="  -1.43549529443E+02"
       rho_cutoff="   6.01000000000E+00"
       l_max="2"
       l_local="-1"
       mesh_size="   602"
       number_of_wfc="0"
       number_of_proj="10"/>
 <PP_MESH>
   <PP_R type="real"  size=" 602" columns="8">
    0.0000    0.0100    0.0200    0.0300    0.0400    0.0500    0.0600    0.0700
    0.0800    0.0900    0.1000    0.1100    0.1200    0.1300    0.1400    0.1500
    0.1600    0.1700    0.1800    0.1900    0.2000    0.2100    0.2200    0.2300
    0.2400    0.2500    0.2600    0.2700    0.2800    0.2900    0.3000    0.3100
    0.3200    0.3300    0.3400    0.3500    0.3600    0.3700    0.3800    0.3900
    0.4000    0.4100    0.4200    0.4300    0.4400    0.4500    0.4600    0.4700
    0.4800    0.4900    0.5000    0.5100    0.5200    0.5300    0.5400    0.5500
    0.5600    0.5700    0.5800    0.5900    0.6000    0.6100    0.6200    0.6300
    0.6400    0.6500    0.6600    0.6700    0.6800    0.6900    0.7000    0.7100
    0.7200    0.7300    0.7400    0.7500    0.7600    0.7700    0.7800    0.7900
    0.8000    0.8100    0.8200    0.8300    0.8400    0.8500    0.8600    0.8700
    0.8800    0.8900    0.9000    0.9100    0.9200    0.9300    0.9400    0.9500
    0.9600    0.9700    0.9800    0.9900    1.0000    1.0100    1.0200    1.0300
    1.0400    1.0500    1.0600    1.0700    1.0800    1.0900    1.1000    1.1100
    1.1200    1.1300    1.1400    1.1500    1.1600    1.1700    1.1800    1.1900
    1.2000    1.2100    1.2200    1.2300    1.2400    1.2500    1.2600    1.2700
    1.2800    1.2900    1.3000    1.3100    1.3200    1.3300    1.3400    1.3500
    1.3600    1.3700    1.3800    1.3900    1.4000    1.4100    1.4200    1.4300
    1.4400    1.4500    1.4600    1.4700    1.4800    1.4900    1.5000    1.5100
    1.5200    1.5300    1.5400    1.5500    1.5600    1.5700    1.5800    1.5900
    1.6000    1.6100    1.6200    1.6300    1.6400    1.6500    1.6600    1.6700
    1.6800    1.6900    1.7000    1.7100    1.7200    1.7300    1.7400    1.7500
    1.7600    1.7700    1.7800    1.7900    1.8000    1.8100    1.8200    1.8300
    1.8400    1.8500    1.8600    1.8700    1.8800    1.8900    1.9000    1.9100
    1.9200    1.9300    1.9400    1.9500    1.9600    1.9700    1.9800    1.9900
    2.0000    2.0100    2.0200    2.0300    2.0400    2.0500    2.0600    2.0700
    2.0800    2.0900    2.1000    2.1100    2.1200    2.1300    2.1400    2.1500
    2.1600    2.1700    2.1800    2.1900    2.2000    2.2100    2.2200    2.2300
    2.2400    2.2500    2.2600    2.2700    2.2800    2.2900    2.3000    2.3100
    2.3200    2.3300    2.3400    2.3500    2.3600    2.3700    2.3800    2.3900
    2.4000    2.4100    2.4200    2.4300    2.4400    2.4500    2.4600    2.4700
    2.4800    2.4900    2.5000    2.5100    2.5200    2.5300    2.5400    2.5500
    2.5600    2.5700    2.5800    2.5900    2.6000    2.6100    2.6200    2.6300
    2.6400    2.6500    2.6600    2.6700    2.6800    2.6900    2.7000    2.7100
    2.7200    2.7300    2.7400    2.7500    2.7600    2.7700    2.7800    2.7900
    2.8000    2.8100    2.8200    2.8300    2.8400    2.8500    2.8600    2.8700
    2.8800    2.8900    2.9000    2.9100    2.9200    2.9300    2.9400    2.9500
    2.9600    2.9700    2.9800    2.9900    3.0000    3.0100    3.0200    3.0300
    3.0400    3.0500    3.0600    3.0700    3.0800    3.0900    3.1000    3.1100
    3.1200    3.1300    3.1400    3.1500    3.1600    3.1700    3.1800    3.1900
    3.2000    3.2100    3.2200    3.2300    3.2400    3.2500    3.2600    3.2700
    3.2800    3.2900    3.3000    3.3100    3.3200    3.3300    3.3400    3.3500
    3.3600    3.3700    3.3800    3.3900    3.4000    3.4100    3.4200    3.4300
    3.4400    3.4500    3.4600    3.4700    3.4800    3.4900    3.5000    3.5100
    3.5200    3.5300    3.5400    3.5500    3.5600    3.5700    3.5800    3.5900
    3.6000    3.6100    3.6200    3.6300    3.6400    3.6500    3.6600    3.6700
    3.6800    3.6900    3.7000    3.7100    3.7200    3.7300    3.7400    3.7500
    3.7600    3.7700    3.7800    3.7900    3.8000    3.8100    3.8200    3.8300
    3.8400    3.8500    3.8600    3.8700    3.8800    3.8900    3.9000    3.9100
    3.9200    3.9300    3.9400    3.9500    3.9600    3.9700    3.9800    3.9900
    4.0000    4.0100    4.0200    4.0300    4.0400    4.0500    4.0600    4.0700
    4.0800    4.0900    4.1000    4.1100    4.1200    4.1300    4.1400    4.1500
    4.1600    4.1700    4.1800    4.1900    4.2000    4.2100    4.2200    4.2300
    4.2400    4.2500    4.2600    4.2700    4.2800    4.2900    4.3000    4.3100
    4.3200    4.3300    4.3400    4.3500    4.3600    4.3700    4.3800    4.3900
    4.4000    4.4100    4.4200    4.4300    4.4400    4.4500    4.4600    4.4700
    4.4800    4.4900    4.5000    4.5100    4.5200    4.5300    4.5400    4.5500
    4.5600    4.5700    4.5800    4.5900    4.6000    4.6100    4.6200    4.6300
    4.6400    4.6500    4.6600    4.6700    4.6800    4.6900    4.7000    4.7100
    4.7200    4.7300    4.7400    4.7500    4.7600    4.7700    4.7800    4.7900
    4.8000    4.8100    4.8200    4.8300    4.8400    4.8500    4.8600    4.8700
    4.8800    4.8900    4.9000    4.9100    4.9200    4.9300    4.9400    4.9500
    4.9600    4.9700    4.9800    4.9900    5.0000    5.0100    5.0200    5.0300
    5.0400    5.0500    5.0600    5.0700    5.0800    5.0900    5.1000    5.1100
    5.1200    5.1300    5.1400    5.1500    5.1600    5.1700    5.1800    5.1900
    5.2000    5.2100    5.2200    5.2300    5.2400    5.2500    5.2600    5.2700
    5.2800    5.2900    5.3000    5.3100    5.3200    5.3300    5.3400    5.3500
    5.3600    5.3700    5.3800    5.3900    5.4000    5.4100    5.4200    5.4300
    5.4400    5.4500    5.4600    5.4700    5.4800    5.4900    5.5000    5.5100
    5.5200    5.5300    5.5400    5.5500    5.5600    5.5700    5.5800    5.5900
    5.6000    5.6100    5.6200    5.6300    5.6400    5.6500    5.6600    5.6700
    5.6800    5.6900    5.7000    5.7100    5.7200    5.7300    5.7400    5.7500
    5.7600    5.7700    5.7800    5.7900    5.8000    5.8100    5.8200    5.8300
    5.8400    5.8500    5.8600    5.8700    5.8800    5.8900    5.9000    5.9100
    5.9200    5.9300    5.9400    5.9500    5.9600    5.9700    5.9800    5.9900
    6.0000    6.0100
   </PP_R>
   <PP_RAB type="real"  size=" 602" columns="8">
    0.0100    0.0100    0.0100    0.0100    0.0100    0.0100    0.0100    0.0100
    0.0100    0.0100    0.0100    0.0100    0.0100    0.0100    0.0100    0.0100
    0.0100    0.0100    0.0100    0.0100    0.0100    0.0100    0.0100    0.0100
    0.0100    0.0100    0.0100    0.0100    0.0100    0.0100    0.0100    0.0100
    0.0100    0.0100    0.0100    0.0100    0.0100    0.0100    0.0100    0.0100
    0.0100    0.0100    0.0100    0.0100    0.0100    0.0100    0.0100    0.0100
    0.0100    0.0100    0.0100    0.0100    0.0100    0.0100    0.0100    0.0100
    0.0100    0.0100    0.0100    0.0100    0.0100    0.0100    0.0100    0.0100
    0.0100    0.0100    0.0100    0.0100    0.0100    0.0100    0.0100    0.0100
    0.0100    0.0100    0.0100    0.0100    0.0100    0.0100    0.0100    0.0100
    0.0100    0.0100    0.0100    0.0100    0.0100    0.0100    0.0100    0.0100
    0.0100    0.0100    0.0100    0.0100    0.0100    0.0100    0.0100    0.0100
    0.0100    0.0100    0.0100    0.0100    0.0100    0.0100    0.0100    0.0100
    0.0100    0.0100    0.0100    0.0100    0.0100    0.0100    0.0100    0.0100
    0.0100    0.0100    0.0100    0.0100    0.0100    0.0100    0.0100    0.0100
    0.0100    0.0100    0.0100    0.0100    0.0100    0.0100    0.0100    0.0100
    0.0100    0.0100    0.0100    0.0100    0.0100    0.0100    0.0100    0.0100
    0.0100    0.0100    0.0100    0.0100    0.0100    0.0100    0.0100    0.0100
    0.0100    0.0100    0.0100    0.0100    0.0100    0.0100    0.0100    0.0100
    0.0100    0.0100    0.0100    0.0100    0.0100    0.0100    0.0100    0.0100
    0.0100    0.0100    0.0100    0.0100    0.0100    0.0100    0.0100    0.0100
    0.0100    0.0100    0.0100    0.0100    0.0100    0.0100    0.0100    0.0100
    0.0100    0.0100    0.0100    0.0100    0.0100    0.0100    0.0100    0.0100
    0.0100    0.0100    0.0100    0.0100    0.0100    0.0100    0.0100    0.0100
    0.0100    0.0100    0.0100    0.0100    0.0100    0.0100    0.0100    0.0100
    0.0100    0.0100    0.0100    0.0100    0.0100    0.0100    0.0100    0.0100
    0.0100    0.0100    0.0100    0.0100    0.0100    0.0100    0.0100    0.0100
    0.0100    0.0100    0.0100    0.0100    0.0100    0.0100    0.0100    0.0100
    0.0100    0.0100    0.0100    0.0100    0.0100    0.0100    0.0100    0.0100
    0.0100    0.0100    0.0100    0.0100    0.0100    0.0100    0.0100    0.0100
    0.0100    0.0100    0.0100    0.0100    0.0100    0.0100    0.0100    0.0100
    0.0100    0.0100    0.0100    0.0100    0.0100    0.0100    0.0100    0.0100
    0.0100    0.0100    0.0100    0.0100    0.0100    0.0100    0.0100    0.0100
    0.0100    0.0100    0.0100    0.0100    0.0100    0.0100    0.0100    0.0100
    0.0100    0.0100    0.0100    0.0100    0.0100    0.0100    0.0100    0.0100
    0.0100    0.0100    0.0100    0.0100    0.0100    0.0100    0.0100    0.0100
    0.0100    0.0100    0.0100    0.0100    0.0100    0.0100    0.0100    0.0100
    0.0100    0.0100    0.0100    0.0100    0.0100    0.0100    0.0100    0.0100
    0.0100    0.0100    0.0100    0.0100    0.0100    0.0100    0.0100    0.0100
    0.0100    0.0100    0.0100    0.0100    0.0100    0.0100    0.0100    0.0100
    0.0100    0.0100    0.0100    0.0100    0.0100    0.0100    0.0100    0.0100
    0.0100    0.0100    0.0100    0.0100    0.0100    0.0100    0.0100    0.0100
    0.0100    0.0100    0.0100    0.0100    0.0100    0.0100    0.0100    0.0100
    0.0100    0.0100    0.0100    0.0100    0.0100    0.0100    0.0100    0.0100
    0.0100    0.0100    0.0100    0.0100    0.0100    0.0100    0.0100    0.0100
    0.0100    0.0100    0.0100    0.0100    0.0100    0.0100    0.0100    0.0100
    0.0100    0.0100    0.0100    0.0100    0.0100    0.0100    0.0100    0.0100
    0.0100    0.0100    0.0100    0.0100    0.0100    0.0100    0.0100    0.0100
    0.0100    0.0100    0.0100    0.0100    0.0100    0.0100    0.0100    0.0100
    0.0100    0.0100    0.0100    0.0100    0.0100    0.0100    0.0100    0.0100
    0.0100    0.0100    0.0100    0.0100    0.0100    0.0100    0.0100    0.0100
    0.0100    0.0100    0.0100    0.0100    0.0100    0.0100    0.0100    0.0100
    0.0100    0.0100    0.0100    0.0100    0.0100    0.0100    0.0100    0.0100
    0.0100    0.0100    0.0100    0.0100    0.0100    0.0100    0.0100    0.0100
    0.0100    0.0100    0.0100    0.0100    0.0100    0.0100    0.0100    0.0100
    0.0100    0.0100    0.0100    0.0100    0.0100    0.0100    0.0100    0.0100
    0.0100    0.0100    0.0100    0.0100    0.0100    0.0100    0.0100    0.0100
    0.0100    0.0100    0.0100    0.0100    0.0100    0.0100    0.0100    0.0100
    0.0100    0.0100    0.0100    0.0100    0.0100    0.0100    0.0100    0.0100
    0.0100    0.0100    0.0100    0.0100    0.0100    0.0100    0.0100    0.0100
    0.0100    0.0100    0.0100    0.0100    0.0100    0.0100    0.0100    0.0100
    0.0100    0.0100    0.0100    0.0100    0.0100    0.0100    0.0100    0.0100
    0.0100    0.0100    0.0100    0.0100    0.0100    0.0100    0.0100    0.0100
    0.0100    0.0100    0.0100    0.0100    0.0100    0.0100    0.0100    0.0100
    0.0100    0.0100    0.0100    0.0100    0.0100    0.0100    0.0100    0.0100
    0.0100    0.0100    0.0100    0.0100    0.0100    0.0100    0.0100    0.0100
    0.0100    0.0100    0.0100    0.0100    0.0100    0.0100    0.0100    0.0100
    0.0100    0.0100    0.0100    0.0100    0.0100    0.0100    0.0100    0.0100
    0.0100    0.0100    0.0100    0.0100    0.0100    0.0100    0.0100    0.0100
    0.0100    0.0100    0.0100    0.0100    0.0100    0.0100    0.0100    0.0100
    0.0100    0.0100    0.0100    0.0100    0.0100    0.0100    0.0100    0.0100
    0.0100    0.0100    0.0100    0.0100    0.0100    0.0100    0.0100    0.0100
    0.0100    0.0100    0.0100    0.0100    0.0100    0.0100    0.0100    0.0100
    0.0100    0.0100    0.0100    0.0100    0.0100    0.0100    0.0100    0.0100
    0.0100    0.0100    0.0100    0.0100    0.0100    0.0100    0.0100    0.0100
    0.0100    0.0100
   </PP_RAB>
 </PP_MESH>
  <PP_LOCAL type="real"  size=" 602" columns="4">
   -5.2597081617E+01   -5.2595309426E+01   -5.2590027550E+01   -5.2581198162E+01
   -5.2568783438E+01   -5.2552733406E+01   -5.2532988634E+01   -5.2509483284E+01
   -5.2482148325E+01   -5.2450914671E+01   -5.2415716069E+01   -5.2376491598E+01
   -5.2333187668E+01   -5.2285759495E+01   -5.2234172044E+01   -5.2178400480E+01
   -5.2118430183E+01   -5.2054256419E+01   -5.1985883730E+01   -5.1913325138E+01
   -5.1836601234E+01   -5.1755739207E+01   -5.1670771868E+01   -5.1581736715E+01
   -5.1488675049E+01   -5.1391631172E+01   -5.1290651676E+01   -5.1185784815E+01
   -5.1077079970E+01   -5.0964587193E+01   -5.0848356831E+01   -5.0728439216E+01
   -5.0604884409E+01   -5.0477742005E+01   -5.0347060971E+01   -5.0212889521E+01
   -5.0075275027E+01   -4.9934263946E+01   -4.9789901766E+01   -4.9642232978E+01
   -4.9491301048E+01   -4.9337148402E+01   -4.9179816427E+01   -4.9019345475E+01
   -4.8855774873E+01   -4.8689142943E+01   -4.8519487033E+01   -4.8346843546E+01
   -4.8171247987E+01   -4.7992735025E+01   -4.7811338556E+01   -4.7627091780E+01
   -4.7440027300E+01   -4.7250177231E+01   -4.7057573325E+01   -4.6862247113E+01
   -4.6664230066E+01   -4.6463553774E+01   -4.6260250135E+01   -4.6054351573E+01
   -4.5845891254E+01   -4.5634903318E+01   -4.5421423157E+01   -4.5205487599E+01
   -4.4987135236E+01   -4.4766406647E+01   -4.4543344597E+01   -4.4317994327E+01
   -4.4090403783E+01   -4.3860623755E+01   -4.3628708042E+01   -4.3394713622E+01
   -4.3158700808E+01   -4.2920733228E+01   -4.2680877886E+01   -4.2439205160E+01
   -4.2195788753E+01   -4.1950705591E+01   -4.1704035755E+01   -4.1455862299E+01
   -4.1206271047E+01   -4.0955350398E+01   -4.0703191096E+01   -4.0449885977E+01
   -4.0195529712E+01   -3.9940218537E+01   -3.9684049976E+01   -3.9427122575E+01
   -3.9169535628E+01   -3.8911388921E+01   -3.8652782479E+01   -3.8393816329E+01
   -3.8134590280E+01   -3.7875203720E+01   -3.7615755394E+01   -3.7356343250E+01
   -3.7097064270E+01   -3.6838014323E+01   -3.6579288032E+01   -3.6320978657E+01
   -3.6063178003E+01   -3.5805976355E+01   -3.5549462203E+01   -3.5293722359E+01
   -3.5038841827E+01   -3.4784903741E+01   -3.4531989434E+01   -3.4280178058E+01
   -3.4029546707E+01   -3.3780170434E+01   -3.3532122209E+01   -3.3285472964E+01
   -3.3040290961E+01   -3.2796642387E+01   -3.2554591200E+01   -3.2314199195E+01
   -3.2075525157E+01   -3.1838625714E+01   -3.1603555321E+01   -3.1370365604E+01
   -3.1139105354E+01   -3.0909821127E+01   -3.0682557204E+01   -3.0457354170E+01
   -3.0234250430E+01   -3.0013282482E+01   -2.9794482491E+01   -2.9577880558E+01
   -2.9363504962E+01   -2.9151379331E+01   -2.8941525406E+01   -2.8733962920E+01
   -2.8528706883E+01   -2.8325770839E+01   -2.8125165542E+01   -2.7926897602E+01
   -2.7730972599E+01   -2.7537391959E+01   -2.7346154376E+01   -2.7157257437E+01
   -2.6970693351E+01   -2.6786453903E+01   -2.6604527132E+01   -2.6424898077E+01
   -2.6247551057E+01   -2.6072464957E+01   -2.5899618966E+01   -2.5728987652E+01
   -2.5560544104E+01   -2.5394259247E+01   -2.5230100011E+01   -2.5068033676E+01
   -2.4908021461E+01   -2.4750025921E+01   -2.4594003626E+01   -2.4439912422E+01
   -2.4287708666E+01   -2.4137350703E+01   -2.3988798263E+01   -2.3842013127E+01
   -2.3696957662E+01   -2.3553596962E+01   -2.3411895861E+01   -2.3271822409E+01
   -2.3133343803E+01   -2.2996430673E+01   -2.2861052439E+01   -2.2727181935E+01
   -2.2594790644E+01   -2.2463853247E+01   -2.2334343108E+01   -2.2206236443E+01
   -2.2079508307E+01   -2.1954136191E+01   -2.1830096661E+01   -2.1707368275E+01
   -2.1585928954E+01   -2.1465758174E+01   -2.1346835097E+01   -2.1229140001E+01
   -2.1112653229E+01   -2.0997355782E+01   -2.0883229182E+01   -2.0770255077E+01
   -2.0658416230E+01   -2.0547694869E+01   -2.0438075074E+01   -2.0329539642E+01
   -2.0222073812E+01   -2.0115661550E+01   -2.0010288650E+01   -1.9905940573E+01
   -1.9802603531E+01   -1.9700264582E+01   -1.9598910269E+01   -1.9498529129E+01
   -1.9399108342E+01   -1.9300637266E+01   -1.9203104449E+01   -1.9106499321E+01
   -1.9010811867E+01   -1.8916031603E+01   -1.8822149504E+01   -1.8729155681E+01
   -1.8637041298E+01   -1.8545797368E+01   -1.8455414955E+01   -1.8365885654E+01
   -1.8277200703E+01   -1.8189351770E+01   -1.8102330423E+01   -1.8016128231E+01
   -1.7930736801E+01   -1.7846147794E+01   -1.7762352657E+01   -1.7679342945E+01
   -1.7597110148E+01   -1.7515645504E+01   -1.7434940503E+01   -1.7354986240E+01
   -1.7275773861E+01   -1.7197294603E+01   -1.7119539306E+01   -1.7042499025E+01
   -1.6966164673E+01   -1.6890527050E+01   -1.6815577057E+01   -1.6741305492E+01
   -1.6667703161E+01   -1.6594760853E+01   -1.6522469504E+01   -1.6450819906E+01
   -1.6379802986E+01   -1.6309409905E+01   -1.6239631487E+01   -1.6170459066E+01
   -1.6101884082E+01   -1.6033897466E+01   -1.5966491187E+01   -1.5899656992E+01
   -1.5833386074E+01   -1.5767671132E+01   -1.5702504212E+01   -1.5637877112E+01
   -1.5573783099E+01   -1.5510214648E+01   -1.5447164243E+01   -1.5384625768E+01
   -1.5322592223E+01   -1.5261056809E+01   -1.5200014054E+01   -1.5139457685E+01
   -1.5079381613E+01   -1.5019780550E+01   -1.4960648703E+01   -1.4901980388E+01
   -1.4843770446E+01   -1.4786013337E+01   -1.4728703578E+01   -1.4671836360E+01
   -1.4615406486E+01   -1.4559408694E+01   -1.4503838410E+01   -1.4448690730E+01
   -1.4393960555E+01   -1.4339643532E+01   -1.4285735016E+01   -1.4232230059E+01
   -1.4179124493E+01   -1.4126413896E+01   -1.4074093583E+01   -1.4022159428E+01
   -1.3970607279E+01   -1.3919432723E+01   -1.3868631640E+01   -1.3818200149E+01
   -1.3768134122E+01   -1.3718429408E+01   -1.3669082401E+01   -1.3620089250E+01
   -1.3571445821E+01   -1.3523148698E+01   -1.3475194227E+01   -1.3427578548E+01
   -1.3380298149E+01   -1.3333349658E+01   -1.3286729509E+01   -1.3240434063E+01
   -1.3194460219E+01   -1.3148804640E+01   -1.3103463759E+01   -1.3058434520E+01
   -1.3013713808E+01   -1.2969298349E+01   -1.2925184898E+01   -1.2881370620E+01
   -1.2837852483E+01   -1.2794627230E+01   -1.2751692102E+01   -1.2709044264E+01
   -1.2666680758E+01   -1.2624598582E+01   -1.2582795186E+01   -1.2541267814E+01
   -1.2500013532E+01   -1.2459029741E+01   -1.2418313910E+01   -1.2377863409E+01
   -1.2337675359E+01   -1.2297747503E+01   -1.2258077336E+01   -1.2218662266E+01
   -1.2179499732E+01   -1.2140587519E+01   -1.2101923239E+01   -1.2063504350E+01
   -1.2025328573E+01   -1.1987393735E+01   -1.1949697558E+01   -1.1912237563E+01
   -1.1875011711E+01   -1.1838017877E+01   -1.1801253887E+01   -1.1764717338E+01
   -1.1728406390E+01   -1.1692318971E+01   -1.1656452977E+01   -1.1620806184E+01
   -1.1585376817E+01   -1.1550162900E+01   -1.1515162405E+01   -1.1480373256E+01
   -1.1445793746E+01   -1.1411421993E+01   -1.1377256051E+01   -1.1343293959E+01
   -1.1309534087E+01   -1.1275974639E+01   -1.1242613761E+01   -1.1209449579E+01
   -1.1176480541E+01   -1.1143704937E+01   -1.1111121008E+01   -1.1078726940E+01
   -1.1046521267E+01   -1.1014502358E+01   -1.0982668559E+01   -1.0951018085E+01
   -1.0919549565E+01   -1.0888261443E+01   -1.0857152164E+01   -1.0826219980E+01
   -1.0795463588E+01   -1.0764881513E+01   -1.0734472273E+01   -1.0704234233E+01
   -1.0674166064E+01   -1.0644266402E+01   -1.0614533831E+01   -1.0584966839E+01
   -1.0555564047E+01   -1.0526324204E+01   -1.0497245963E+01   -1.0468327935E+01
   -1.0439568675E+01   -1.0410967047E+01   -1.0382521767E+01   -1.0354231549E+01
   -1.0326094950E+01   -1.0298110866E+01   -1.0270278098E+01   -1.0242595423E+01
   -1.0215061530E+01   -1.0187675202E+01   -1.0160435372E+01   -1.0133340871E+01
   -1.0106390532E+01   -1.0079583013E+01   -1.0052917370E+01   -1.0026392492E+01
   -1.0000007264E+01   -9.9737604887E+00   -9.9476510684E+00   -9.9216780332E+00
   -9.8958403212E+00   -9.8701368706E+00   -9.8445664672E+00   -9.8191282300E+00
   -9.7938211625E+00   -9.7686442521E+00   -9.7435964378E+00   -9.7186766510E+00
   -9.6938840444E+00   -9.6692176528E+00   -9.6446765110E+00   -9.6202595539E+00
   -9.5959658791E+00   -9.5717946304E+00   -9.5477448874E+00   -9.5238157301E+00
   -9.5000061002E+00   -9.4763152329E+00   -9.4527422705E+00   -9.4292863355E+00
   -9.4059465364E+00   -9.3827218746E+00   -9.3596116521E+00   -9.3366150324E+00
   -9.3137311792E+00   -9.2909592184E+00   -9.2682982461E+00   -9.2457475785E+00
   -9.2233064183E+00   -9.2009739679E+00   -9.1787493790E+00   -9.1566318191E+00
   -9.1346206256E+00   -9.1127150383E+00   -9.0909142967E+00   -9.0692175858E+00
   -9.0476241221E+00   -9.0261332713E+00   -9.0047443084E+00   -8.9834565086E+00
   -8.9622690968E+00   -8.9411813178E+00   -8.9201925722E+00   -8.8993021689E+00
   -8.8785094167E+00   -8.8578135871E+00   -8.8372139338E+00   -8.8167098985E+00
   -8.7963008222E+00   -8.7759860461E+00   -8.7557648944E+00   -8.7356366116E+00
   -8.7156006861E+00   -8.6956564895E+00   -8.6758033938E+00   -8.6560407707E+00
   -8.6363678729E+00   -8.6167842062E+00   -8.5972891830E+00   -8.5778822043E+00
   -8.5585626712E+00   -8.5393299013E+00   -8.5201833506E+00   -8.5011224941E+00
   -8.4821467607E+00   -8.4632555793E+00   -8.4444483389E+00   -8.4257244304E+00
   -8.4070833953E+00   -8.3885246892E+00   -8.3700477675E+00   -8.3516520860E+00
   -8.3333369887E+00   -8.3151020552E+00   -8.2969467767E+00   -8.2788706341E+00
   -8.2608731082E+00   -8.2429536248E+00   -8.2251116653E+00   -8.2073468002E+00
   -8.1896585346E+00   -8.1720463735E+00   -8.1545098222E+00   -8.1370482780E+00
   -8.1196613666E+00   -8.1023486242E+00   -8.0851095792E+00   -8.0679437596E+00
   -8.0508506546E+00   -8.0338297628E+00   -8.0168807099E+00   -8.0000030461E+00
   -7.9831963216E+00   -7.9664600866E+00   -7.9497938153E+00   -7.9331971113E+00
   -7.9166695819E+00   -7.9002107982E+00   -7.8838203315E+00   -7.8674977528E+00
   -7.8512425308E+00   -7.8350543521E+00   -7.8189328133E+00   -7.8028775055E+00
   -7.7868880198E+00   -7.7709639308E+00   -7.7551047593E+00   -7.7393102048E+00
   -7.7235798774E+00   -7.7079133874E+00   -7.6923103448E+00   -7.6767703295E+00
   -7.6612929130E+00   -7.6458777973E+00   -7.6305246108E+00   -7.6152329819E+00
   -7.6000025389E+00   -7.5848328740E+00   -7.5697235914E+00   -7.5546744026E+00
   -7.5396849533E+00   -7.5247548890E+00   -7.5098838555E+00   -7.4950714640E+00
   -7.4803173346E+00   -7.4656211947E+00   -7.4509827064E+00   -7.4364015318E+00
   -7.4218773332E+00   -7.4074097468E+00   -7.3929983931E+00   -7.3786430214E+00
   -7.3643433094E+00   -7.3500989351E+00   -7.3359095763E+00   -7.3217749003E+00
   -7.3076945136E+00   -7.2936681925E+00   -7.2796956297E+00   -7.2657765183E+00
   -7.2519105510E+00   -7.2380974209E+00   -7.2243367397E+00   -7.2106282827E+00
   -7.1969717682E+00   -7.1833669033E+00   -7.1698133953E+00   -7.1563109513E+00
   -7.1428592257E+00   -7.1294579483E+00   -7.1161068777E+00   -7.1028057350E+00
   -7.0895542408E+00   -7.0763521162E+00   -7.0631990635E+00   -7.0500947547E+00
   -7.0370389933E+00   -7.0240315131E+00   -7.0110720480E+00   -6.9981603318E+00
   -6.9852960985E+00   -6.9724790171E+00   -6.9597088737E+00   -6.9469854360E+00
   -6.9343084504E+00   -6.9216776632E+00   -6.9090928205E+00   -6.8965536498E+00
   -6.8840598533E+00   -6.8716112543E+00   -6.8592076108E+00   -6.8468486809E+00
   -6.8345342228E+00   -6.8222639944E+00   -6.8100377035E+00   -6.7978551330E+00
   -6.7857160845E+00   -6.7736203272E+00   -6.7615676305E+00   -6.7495577638E+00
   -6.7375904964E+00   -6.7256655241E+00   -6.7137826933E+00   -6.7019417902E+00
   -6.6901425949E+00   -6.6783848877E+00   -6.6666684484E+00   -6.6549930452E+00
   -6.6433584057E+00   -6.6317643860E+00   -6.6202107766E+00   -6.6086973679E+00
   -6.5972239500E+00   -6.5857903135E+00   -6.5743962251E+00   -6.5630414482E+00
   -6.5517258362E+00   -6.5404491890E+00   -6.5292113069E+00   -6.5180119899E+00
   -6.5068510382E+00   -6.4957282238E+00   -6.4846433312E+00   -6.4735962166E+00
   -6.4625866897E+00   -6.4516145597E+00   -6.4406796361E+00   -6.4297817283E+00
   -6.4189206196E+00   -6.4080961015E+00   -6.3973080393E+00   -6.3865562514E+00
   -6.3758405559E+00   -6.3651607713E+00   -6.3545167158E+00   -6.3439081894E+00
   -6.3333349778E+00   -6.3227969606E+00
  </PP_LOCAL>
 <PP_NONLOCAL>
   <PP_BETA.1
       type="real"
       size=" 602"
       columns="4"
       index="1"
       angular_momentum="0"
       cutoff_radius_index=" 270"
       cutoff_radius="    2.6900000000E+00" >
    0.0000000000E+00    3.2515779580E-03    6.4644816345E-03    9.6001061855E-03
    1.2619985667E-02    1.5485862543E-02    1.8159757269E-02    2.0604037955E-02
    2.2781490140E-02    2.4655386680E-02    2.6189557751E-02    2.7348460978E-02
    2.8097251672E-02    2.8401853170E-02    2.8229027238E-02    2.7546444532E-02
    2.6322755034E-02    2.4527658480E-02    2.2131974621E-02    1.9107713321E-02
    1.5428144420E-02    1.1067867124E-02    6.0028791000E-03    2.1064472278E-04
   -6.3298370786E-03   -1.3637966147E-02   -2.1731475269E-02   -3.0626365721E-02
   -4.0336843687E-02   -5.0875258898E-02   -6.2252044565E-02   -7.4475659650E-02
   -8.7552532481E-02   -1.0148700760E-01   -1.1628129593E-01   -1.3193542454E-01
   -1.4844719492E-01   -1.6581213847E-01   -1.8402348062E-01   -2.0307210654E-01
   -2.2294653112E-01   -2.4363287283E-01   -2.6511483388E-01   -2.8737368390E-01
   -3.1038824915E-01   -3.3413490715E-01   -3.5858758724E-01   -3.8371777567E-01
   -4.0949452845E-01   -4.3588448993E-01   -4.6285191781E-01   -4.9035871396E-01
   -5.1836446347E-01   -5.4682647984E-01   -5.7569985755E-01   -6.0493753247E-01
   -6.3449034631E-01   -6.6430712666E-01   -6.9433476043E-01   -7.2451829323E-01
   -7.5480101844E-01   -7.8512458082E-01   -8.1542910316E-01   -8.4565327535E-01
   -8.7573451376E-01   -9.0560908050E-01   -9.3521220640E-01   -9.6447826118E-01