<UPF version="2.0.1">
  <PP_INFO>

 B_ONCV_PBE_FR-1.0.upf

 This pseudopotential file has been produced using the code
 ONCVPSP  (Optimized Norm-Conservinng Vanderbilt PSeudopotential)
 fully-relativistic version 2.1.1, 03/26/2014 by D. R. Hamann
 The code is available through a link at URL www.mat-simresearch.com.
 Documentation with the package provides a full description of the
 input data below.

 While it is not required under the terms of the GNU GPL, it is
 suggested that you cite D. R. Hamann, Phys. Rev. B 88, 085117 (2013)
 in any publication using these pseudopotentials.

 -----

 This pseudopotential was produced with the SG15 1.0 and/or 1.1
 parameter sets, the Schlipf-Gygi norm-conserving pseudopotential
 library. For details of the construction and testing of the
 pseudopotential please refer to:

 M. Schlipf, F. Gygi, Comp. Phys. Comm. 196, 36 (2015)
 http://dx.doi.org/10.1016/j.cpc.2015.05.011

 The above authors kindly ask that you include this reference in all
 publications associated to this pseudopotential.

 Please note this fully-relativistic version does not employ the
 above self-consistent procedure at the fully-relativistic level.

 -----

 This pseudopotential was produced by Peter Scherpelz for the purpose
 of performing GW calculations with spin-orbit-coupling. Please see
 the publication:

 P. Scherpelz, M. Govoni, I. Hamada, G. Galli; J. Chem. Theory Comput. (2016)
 http://dx.doi.org/10.1021/acs.jctc.6b00114

 If you use these pseudopotentials in your work, we also kindly ask
 that you cite the above publication.

 -----

 This work is licensed under the Creative Commons Attribution-ShareAlike 
 4.0 International License. To view a copy of this license, visit 
 http://creativecommons.org/licenses/by-sa/4.0/ or send a letter to 
 Creative Commons, PO Box 1866, Mountain View, CA 94042, USA.

 The SG15 library is Copyright 2015 The Regents of the University of
 California.  Further modifications of these files are Copyright 2016
 Peter Scherpelz.

    <PP_INPUTFILE>
# ATOM AND REFERENCE CONFIGURATION
# atsym  z    nc    nv    iexc   psfile
  B  5.00     1     2     4      upf
#
#   n    l    f        energy (Ha)
    1    0    2.00
    2    0    2.00
    2    1    1.00
#
# PSEUDOPOTENTIAL AND OPTIMIZATION
# lmax
    1
#
#   l,   rc,     ep,   ncon, nbas, qcut
    0    1.77   -0.35    5    8    8.06
    1    1.90   -0.13    5    8    7.09
#
# LOCAL POTENTIAL
# lloc, lpopt,  rc(5),   dvloc0
    4    5      1.38       0.00
#
# VANDERBILT-KLEINMAN-BYLANDER PROJECTORs
# l, nproj, debl
    0    2    0.7689
    1    2    1.7736
#
# MODEL CORE CHARGE
# icmod, fcfact
    0    0.00
#
# LOG DERIVATIVE ANALYSIS
# epsh1, epsh2, depsh
   -5.00    3.00    0.02
#
# OUTPUT GRID
# rlmax, drl
    6.00    0.01
#
# TEST CONFIGURATIONS
# ncnf
    0
# nvcnf
#   n    l    f
    </PP_INPUTFILE>
  </PP_INFO>
  <!--                               -->
  <!-- END OF HUMAN READABLE SECTION -->
  <!--                               -->
    <PP_HEADER
       generated="Generated using ONCVPSP code by D. R. Hamann"
       author="anonymous"
       date="150703"
       comment=""
       element="B "
       pseudo_type="NC"
       relativistic="full"
       is_ultrasoft="F"
       is_paw="F"
       is_coulomb="F"
       has_so="T"
       has_wfc="F"
       has_gipaw="F"
       core_correction="F"
       functional="PBE"
       z_valence="    3.00"
       total_psenergy="  -2.58893247535E+00"
       rho_cutoff="   6.01000000000E+00"
       l_max="1"
       l_local="-1"
       mesh_size="   602"
       number_of_wfc="0"
       number_of_proj="6"/>
 <PP_MESH>
   <PP_R type="real"  size=" 602" columns="8">
    0.0000    0.0100    0.0200    0.0300    0.0400    0.0500    0.0600    0.0700
    0.0800    0.0900    0.1000    0.1100    0.1200    0.1300    0.1400    0.1500
    0.1600    0.1700    0.1800    0.1900    0.2000    0.2100    0.2200    0.2300
    0.2400    0.2500    0.2600    0.2700    0.2800    0.2900    0.3000    0.3100
    0.3200    0.3300    0.3400    0.3500    0.3600    0.3700    0.3800    0.3900
    0.4000    0.4100    0.4200    0.4300    0.4400    0.4500    0.4600    0.4700
    0.4800    0.4900    0.5000    0.5100    0.5200    0.5300    0.5400    0.5500
    0.5600    0.5700    0.5800    0.5900    0.6000    0.6100    0.6200    0.6300
    0.6400    0.6500    0.6600    0.6700    0.6800    0.6900    0.7000    0.7100
    0.7200    0.7300    0.7400    0.7500    0.7600    0.7700    0.7800    0.7900
    0.8000    0.8100    0.8200    0.8300    0.8400    0.8500    0.8600    0.8700
    0.8800    0.8900    0.9000    0.9100    0.9200    0.9300    0.9400    0.9500
    0.9600    0.9700    0.9800    0.9900    1.0000    1.0100    1.0200    1.0300
    1.0400    1.0500    1.0600    1.0700    1.0800    1.0900    1.1000    1.1100
    1.1200    1.1300    1.1400    1.1500    1.1600    1.1700    1.1800    1.1900
    1.2000    1.2100    1.2200    1.2300    1.2400    1.2500    1.2600    1.2700
    1.2800    1.2900    1.3000    1.3100    1.3200    1.3300    1.3400    1.3500
    1.3600    1.3700    1.3800    1.3900    1.4000    1.4100    1.4200    1.4300
    1.4400    1.4500    1.4600    1.4700    1.4800    1.4900    1.5000    1.5100
    1.5200    1.5300    1.5400    1.5500    1.5600    1.5700    1.5800    1.5900
    1.6000    1.6100    1.6200    1.6300    1.6400    1.6500    1.6600    1.6700
    1.6800    1.6900    1.7000    1.7100    1.7200    1.7300    1.7400    1.7500
    1.7600    1.7700    1.7800    1.7900    1.8000    1.8100    1.8200    1.8300
    1.8400    1.8500    1.8600    1.8700    1.8800    1.8900    1.9000    1.9100
    1.9200    1.9300    1.9400    1.9500    1.9600    1.9700    1.9800    1.9900
    2.0000    2.0100    2.0200    2.0300    2.0400    2.0500    2.0600    2.0700
    2.0800    2.0900    2.1000    2.1100    2.1200    2.1300    2.1400    2.1500
    2.1600    2.1700    2.1800    2.1900    2.2000    2.2100    2.2200    2.2300
    2.2400    2.2500    2.2600    2.2700    2.2800    2.2900    2.3000    2.3100
    2.3200    2.3300    2.3400    2.3500    2.3600    2.3700    2.3800    2.3900
    2.4000    2.4100    2.4200    2.4300    2.4400    2.4500    2.4600    2.4700
    2.4800    2.4900    2.5000    2.5100    2.5200    2.5300    2.5400    2.5500
    2.5600    2.5700    2.5800    2.5900    2.6000    2.6100    2.6200    2.6300
    2.6400    2.6500    2.6600    2.6700    2.6800    2.6900    2.7000    2.7100
    2.7200    2.7300    2.7400    2.7500    2.7600    2.7700    2.7800    2.7900
    2.8000    2.8100    2.8200    2.8300    2.8400    2.8500    2.8600    2.8700
    2.8800    2.8900    2.9000    2.9100    2.9200    2.9300    2.9400    2.9500
    2.9600    2.9700    2.9800    2.9900    3.0000    3.0100    3.0200    3.0300
    3.0400    3.0500    3.0600    3.0700    3.0800    3.0900    3.1000    3.1100
    3.1200    3.1300    3.1400    3.1500    3.1600    3.1700    3.1800    3.1900
    3.2000    3.2100    3.2200    3.2300    3.2400    3.2500    3.2600    3.2700
    3.2800    3.2900    3.3000    3.3100    3.3200    3.3300    3.3400    3.3500
    3.3600    3.3700    3.3800    3.3900    3.4000    3.4100    3.4200    3.4300
    3.4400    3.4500    3.4600    3.4700    3.4800    3.4900    3.5000    3.5100
    3.5200    3.5300    3.5400    3.5500    3.5600    3.5700    3.5800    3.5900
    3.6000    3.6100    3.6200    3.6300    3.6400    3.6500    3.6600    3.6700
    3.6800    3.6900    3.7000    3.7100    3.7200    3.7300    3.7400    3.7500
    3.7600    3.7700    3.7800    3.7900    3.8000    3.8100    3.8200    3.8300
    3.8400    3.8500    3.8600    3.8700    3.8800    3.8900    3.9000    3.9100
    3.9200    3.9300    3.9400    3.9500    3.9600    3.9700    3.9800    3.9900
    4.0000    4.0100    4.0200    4.0300    4.0400    4.0500    4.0600    4.0700
    4.0800    4.0900    4.1000    4.1100    4.1200    4.1300    4.1400    4.1500
    4.1600    4.1700    4.1800    4.1900    4.2000    4.2100    4.2200    4.2300
    4.2400    4.2500    4.2600    4.2700    4.2800    4.2900    4.3000    4.3100
    4.3200    4.3300    4.3400    4.3500    4.3600    4.3700    4.3800    4.3900
    4.4000    4.4100    4.4200    4.4300    4.4400    4.4500    4.4600    4.4700
    4.4800    4.4900    4.5000    4.5100    4.5200    4.5300    4.5400    4.5500
    4.5600    4.5700    4.5800    4.5900    4.6000    4.6100    4.6200    4.6300
    4.6400    4.6500    4.6600    4.6700    4.6800    4.6900    4.7000    4.7100
    4.7200    4.7300    4.7400    4.7500    4.7600    4.7700    4.7800    4.7900
    4.8000    4.8100    4.8200    4.8300    4.8400    4.8500    4.8600    4.8700
    4.8800    4.8900    4.9000    4.9100    4.9200    4.9300    4.9400    4.9500
    4.9600    4.9700    4.9800    4.9900    5.0000    5.0100    5.0200    5.0300
    5.0400    5.0500    5.0600    5.0700    5.0800    5.0900    5.1000    5.1100
    5.1200    5.1300    5.1400    5.1500    5.1600    5.1700    5.1800    5.1900
    5.2000    5.2100    5.2200    5.2300    5.2400    5.2500    5.2600    5.2700
    5.2800    5.2900    5.3000    5.3100    5.3200    5.3300    5.3400    5.3500
    5.3600    5.3700    5.3800    5.3900    5.4000    5.4100    5.4200    5.4300
    5.4400    5.4500    5.4600    5.4700    5.4800    5.4900    5.5000    5.5100
    5.5200    5.5300    5.5400    5.5500    5.5600    5.5700    5.5800    5.5900
    5.6000    5.6100    5.6200    5.6300    5.6400    5.6500    5.6600    5.6700
    5.6800    5.6900    5.7000    5.7100    5.7200    5.7300    5.7400    5.7500
    5.7600    5.7700    5.7800    5.7900    5.8000    5.8100    5.8200    5.8300
    5.8400    5.8500    5.8600    5.8700    5.8800    5.8900    5.9000    5.9100
    5.9200    5.9300    5.9400    5.9500    5.9600    5.9700    5.9800    5.9900
    6.0000    6.0100
   </PP_R>
   <PP_RAB type="real"  size=" 602" columns="8">
    0.0100    0.0100    0.0100    0.0100    0.0100    0.0100    0.0100    0.0100
    0.0100    0.0100    0.0100    0.0100    0.0100    0.0100    0.0100    0.0100
    0.0100    0.0100    0.0100    0.0100    0.0100    0.0100    0.0100    0.0100
    0.0100    0.0100    0.0100    0.0100    0.0100    0.0100    0.0100    0.0100
    0.0100    0.0100    0.0100    0.0100    0.0100    0.0100    0.0100    0.0100
    0.0100    0.0100    0.0100    0.0100    0.0100    0.0100    0.0100    0.0100
    0.0100    0.0100    0.0100    0.0100    0.0100    0.0100    0.0100    0.0100
    0.0100    0.0100    0.0100    0.0100    0.0100    0.0100    0.0100    0.0100
    0.0100    0.0100    0.0100    0.0100    0.0100    0.0100    0.0100    0.0100
    0.0100    0.0100    0.0100    0.0100    0.0100    0.0100    0.0100    0.0100
    0.0100    0.0100    0.0100    0.0100    0.0100    0.0100    0.0100    0.0100
    0.0100    0.0100    0.0100    0.0100    0.0100    0.0100    0.0100    0.0100
    0.0100    0.0100    0.0100    0.0100    0.0100    0.0100    0.0100    0.0100
    0.0100    0.0100    0.0100    0.0100    0.0100    0.0100    0.0100    0.0100
    0.0100    0.0100    0.0100    0.0100    0.0100    0.0100    0.0100    0.0100
    0.0100    0.0100    0.0100    0.0100    0.0100    0.0100    0.0100    0.0100
    0.0100    0.0100    0.0100    0.0100    0.0100    0.0100    0.0100    0.0100
    0.0100    0.0100    0.0100    0.0100    0.0100    0.0100    0.0100    0.0100
    0.0100    0.0100    0.0100    0.0100    0.0100    0.0100    0.0100    0.0100
    0.0100    0.0100    0.0100    0.0100    0.0100    0.0100    0.0100    0.0100
    0.0100    0.0100    0.0100    0.0100    0.0100    0.0100    0.0100    0.0100
    0.0100    0.0100    0.0100    0.0100    0.0100    0.0100    0.0100    0.0100
    0.0100    0.0100    0.0100    0.0100    0.0100    0.0100    0.0100    0.0100
    0.0100    0.0100    0.0100    0.0100    0.0100    0.0100    0.0100    0.0100
    0.0100    0.0100    0.0100    0.0100    0.0100    0.0100    0.0100    0.0100
    0.0100    0.0100    0.0100    0.0100    0.0100    0.0100    0.0100    0.0100
    0.0100    0.0100    0.0100    0.0100    0.0100    0.0100    0.0100    0.0100
    0.0100    0.0100    0.0100    0.0100    0.0100    0.0100    0.0100    0.0100
    0.0100    0.0100    0.0100    0.0100    0.0100    0.0100    0.0100    0.0100
    0.0100    0.0100    0.0100    0.0100    0.0100    0.0100    0.0100    0.0100
    0.0100    0.0100    0.0100    0.0100    0.0100    0.0100    0.0100    0.0100
    0.0100    0.0100    0.0100    0.0100    0.0100    0.0100    0.0100    0.0100
    0.0100    0.0100    0.0100    0.0100    0.0100    0.0100    0.0100    0.0100
    0.0100    0.0100    0.0100    0.0100    0.0100    0.0100    0.0100    0.0100
    0.0100    0.0100    0.0100    0.0100    0.0100    0.0100    0.0100    0.0100
    0.0100    0.0100    0.0100    0.0100    0.0100    0.0100    0.0100    0.0100
    0.0100    0.0100    0.0100    0.0100    0.0100    0.0100    0.0100    0.0100
    0.0100    0.0100    0.0100    0.0100    0.0100    0.0100    0.0100    0.0100
    0.0100    0.0100    0.0100    0.0100    0.0100    0.0100    0.0100    0.0100
    0.0100    0.0100    0.0100    0.0100    0.0100    0.0100    0.0100    0.0100
    0.0100    0.0100    0.0100    0.0100    0.0100    0.0100    0.0100    0.0100
    0.0100    0.0100    0.0100    0.0100    0.0100    0.0100    0.0100    0.0100
    0.0100    0.0100    0.0100    0.0100    0.0100    0.0100    0.0100    0.0100
    0.0100    0.0100    0.0100    0.0100    0.0100    0.0100    0.0100    0.0100
    0.0100    0.0100    0.0100    0.0100    0.0100    0.0100    0.0100    0.0100
    0.0100    0.0100    0.0100    0.0100    0.0100    0.0100    0.0100    0.0100
    0.0100    0.0100    0.0100    0.0100    0.0100    0.0100    0.0100    0.0100
    0.0100    0.0100    0.0100    0.0100    0.0100    0.0100    0.0100    0.0100
    0.0100    0.0100    0.0100    0.0100    0.0100    0.0100    0.0100    0.0100
    0.0100    0.0100    0.0100    0.0100    0.0100    0.0100    0.0100    0.0100
    0.0100    0.0100    0.0100    0.0100    0.0100    0.0100    0.0100    0.0100
    0.0100    0.0100    0.0100    0.0100    0.0100    0.0100    0.0100    0.0100
    0.0100    0.0100    0.0100    0.0100    0.0100    0.0100    0.0100    0.0100
    0.0100    0.0100    0.0100    0.0100    0.0100    0.0100    0.0100    0.0100
    0.0100    0.0100    0.0100    0.0100    0.0100    0.0100    0.0100    0.0100
    0.0100    0.0100    0.0100    0.0100    0.0100    0.0100    0.0100    0.0100
    0.0100    0.0100    0.0100    0.0100    0.0100    0.0100    0.0100    0.0100
    0.0100    0.0100    0.0100    0.0100    0.0100    0.0100    0.0100    0.0100
    0.0100    0.0100    0.0100    0.0100    0.0100    0.0100    0.0100    0.0100
    0.0100    0.0100    0.0100    0.0100    0.0100    0.0100    0.0100    0.0100
    0.0100    0.0100    0.0100    0.0100    0.0100    0.0100    0.0100    0.0100
    0.0100    0.0100    0.0100    0.0100    0.0100    0.0100    0.0100    0.0100
    0.0100    0.0100    0.0100    0.0100    0.0100    0.0100    0.0100    0.0100
    0.0100    0.0100    0.0100    0.0100    0.0100    0.0100    0.0100    0.0100
    0.0100    0.0100    0.0100    0.0100    0.0100    0.0100    0.0100    0.0100
    0.0100    0.0100    0.0100    0.0100    0.0100    0.0100    0.0100    0.0100
    0.0100    0.0100    0.0100    0.0100    0.0100    0.0100    0.0100    0.0100
    0.0100    0.0100    0.0100    0.0100    0.0100    0.0100    0.0100    0.0100
    0.0100    0.0100    0.0100    0.0100    0.0100    0.0100    0.0100    0.0100
    0.0100    0.0100    0.0100    0.0100    0.0100    0.0100    0.0100    0.0100
    0.0100    0.0100    0.0100    0.0100    0.0100    0.0100    0.0100    0.0100
    0.0100    0.0100    0.0100    0.0100    0.0100    0.0100    0.0100    0.0100
    0.0100    0.0100    0.0100    0.0100    0.0100    0.0100    0.0100    0.0100
    0.0100    0.0100    0.0100    0.0100    0.0100    0.0100    0.0100    0.0100
    0.0100    0.0100    0.0100    0.0100    0.0100    0.0100    0.0100    0.0100
    0.0100    0.0100
   </PP_RAB>
 </PP_MESH>
  <PP_LOCAL type="real"  size=" 602" columns="4">
   -5.5100358319E+00   -1.1438978744E+01   -1.3605583923E+01   -1.3387197307E+01
   -1.2161164834E+01   -1.1211413980E+01   -1.0665684636E+01   -1.0369286415E+01
   -1.0203046687E+01   -1.0103304480E+01   -1.0038631505E+01   -9.9934879958E+00
   -9.9599296963E+00   -9.9336916879E+00   -9.9123449093E+00   -9.8944082033E+00
   -9.8789052224E+00   -9.8651346427E+00   -9.8525460923E+00   -9.8406709744E+00
   -9.8290830845E+00   -9.8173763769E+00   -9.8051531797E+00   -9.7920192022E+00
   -9.7775831861E+00   -9.7614598686E+00   -9.7432752916E+00   -9.7226737872E+00
   -9.6993259654E+00   -9.6729371632E+00   -9.6432558264E+00   -9.6100812930E+00
   -9.5732704904E+00   -9.5327433370E+00   -9.4884859133E+00   -9.4405519985E+00
   -9.3890618252E+00   -9.3341990590E+00   -9.2762049223E+00   -9.2153706717E+00
   -9.1520284500E+00   -9.0865405592E+00   -9.0192883113E+00   -8.9506606892E+00
   -8.8810434585E+00   -8.8108092506E+00   -8.7403090411E+00   -8.6698654290E+00
   -8.5997673979E+00   -8.5302673386E+00   -8.4615797023E+00   -8.3938814238E+00
   -8.3273125410E+00   -8.2619793967E+00   -8.1979574501E+00   -8.1352940648E+00
   -8.0740129970E+00   -8.0141164603E+00   -7.9555895539E+00   -7.8984018213E+00
   -7.8425106755E+00   -7.7878627506E+00   -7.7343959643E+00   -7.6820409647E+00
   -7.6307220226E+00   -7.5803583659E+00   -7.5308650130E+00   -7.4821534576E+00
   -7.4341327065E+00   -7.3867100759E+00   -7.3397920826E+00   -7.2932854406E+00
   -7.2470980950E+00   -7.2011402824E+00   -7.1553256255E+00   -7.1095722199E+00
   -7.0638036196E+00   -7.0179500544E+00   -6.9719490818E+00   -6.9257463906E+00
   -6.8792963745E+00   -6.8325625201E+00   -6.7855176000E+00   -6.7381436660E+00
   -6.6904318487E+00   -6.6423819769E+00   -6.5940020371E+00   -6.5453074972E+00
   -6.4963205253E+00   -6.4470691325E+00   -6.3975862720E+00   -6.3479089227E+00
   -6.2980771853E+00   -6.2481334132E+00   -6.1981213986E+00   -6.1480856560E+00
   -6.0980706973E+00   -6.0481204606E+00   -5.9982778216E+00   -5.9485841852E+00
   -5.8990791612E+00   -5.8498003511E+00   -5.8007831827E+00   -5.7520605358E+00
   -5.7036629746E+00   -5.6556186460E+00   -5.6079533068E+00   -5.5606905653E+00
   -5.5138513513E+00   -5.4674545926E+00   -5.4215171739E+00   -5.3760541534E+00
   -5.3310786046E+00   -5.2866017864E+00   -5.2426334874E+00   -5.1991821512E+00
   -5.1562546525E+00   -5.1138565516E+00   -5.0719923429E+00   -5.0306656208E+00
   -4.9898785508E+00   -4.9496325728E+00   -4.9099283889E+00   -4.8707656648E+00
   -4.8321432910E+00   -4.7940596068E+00   -4.7565121298E+00   -4.7194976075E+00
   -4.6830123586E+00   -4.6470519414E+00   -4.6116111876E+00   -4.5766845873E+00
   -4.5422657844E+00   -4.5083477895E+00   -4.4749233453E+00   -4.4419840951E+00
   -4.4095213138E+00   -4.3775257435E+00   -4.3459870518E+00   -4.3148948580E+00
   -4.2842385123E+00   -4.2540079587E+00   -4.2241933404E+00   -4.1947856244E+00
   -4.1657757688E+00   -4.1371554374E+00   -4.1089164966E+00   -4.0810511188E+00
   -4.0535520063E+00   -4.0264118043E+00   -3.9996238758E+00   -3.9731814627E+00
   -3.9470783301E+00   -3.9213083065E+00   -3.8958654991E+00   -3.8707442357E+00
   -3.8459389291E+00   -3.8214443161E+00   -3.7972550831E+00   -3.7733662927E+00
   -3.7497728744E+00   -3.7264701325E+00   -3.7034532382E+00   -3.6807176516E+00
   -3.6582587469E+00   -3.6360721096E+00   -3.6141532691E+00   -3.5924979101E+00
   -3.5711016780E+00   -3.5499603345E+00   -3.5290696104E+00   -3.5084253273E+00
   -3.4880232787E+00   -3.4678593351E+00   -3.4479293381E+00   -3.4282291939E+00
   -3.4087547587E+00   -3.3895020566E+00   -3.3704669132E+00   -3.3516457121E+00
   -3.3330345690E+00   -3.3146300321E+00   -3.2964285881E+00   -3.2784267532E+00
   -3.2606209551E+00   -3.2430078503E+00   -3.2255842523E+00   -3.2083469363E+00
   -3.1912928535E+00   -3.1744188148E+00   -3.1577220438E+00   -3.1411995037E+00
   -3.1248485825E+00   -3.1086665443E+00   -3.0926508160E+00   -3.0767989242E+00
   -3.0611083425E+00   -3.0455767075E+00   -3.0302015155E+00   -3.0149805267E+00
   -2.9999113932E+00   -2.9849918775E+00   -2.9702198079E+00   -2.9555929450E+00
   -2.9411092614E+00   -2.9267665945E+00   -2.9125629553E+00   -2.8984963396E+00
   -2.8845647361E+00   -2.8707662948E+00   -2.8570990390E+00   -2.8435611764E+00
   -2.8301508754E+00   -2.8168663055E+00   -2.8037057852E+00   -2.7906675147E+00
   -2.7777498538E+00   -2.7649511486E+00   -2.7522697066E+00   -2.7397040073E+00
   -2.7272524215E+00   -2.7149134206E+00   -2.7026855286E+00   -2.6905671678E+00
   -2.6785569574E+00   -2.6666534388E+00   -2.6548551598E+00   -2.6431607995E+00
   -2.6315689401E+00   -2.6200782574E+00   -2.6086874723E+00   -2.5973952152E+00
   -2.5862002761E+00   -2.5751014086E+00   -2.5640973157E+00   -2.5531868653E+00
   -2.5423688438E+00   -2.5316420499E+00   -2.5210053945E+00   -2.5104577081E+00
   -2.4999978754E+00   -2.4896248484E+00   -2.4793375025E+00   -2.4691347984E+00
   -2.4590157287E+00   -2.4489792140E+00   -2.4390242811E+00   -2.4291499635E+00
   -2.4193552268E+00   -2.4096391552E+00   -2.4000008227E+00   -2.3904392403E+00
   -2.3809535406E+00   -2.3715428391E+00   -2.3622061914E+00   -2.3529427712E+00
   -2.3437517354E+00   -2.3346321841E+00   -2.3255833246E+00   -2.3166043556E+00
   -2.3076944217E+00   -2.2988527569E+00   -2.2900786017E+00   -2.2813711455E+00
   -2.2727296420E+00   -2.2641533741E+00   -2.2556415757E+00   -2.2471935148E+00
   -2.2388085159E+00   -2.2304858582E+00   -2.2222248181E+00   -2.2140247614E+00
   -2.2058850128E+00   -2.1978048527E+00   -2.1897836872E+00   -2.1818208740E+00
   -2.1739157316E+00   -2.1660676672E+00   -2.1582760807E+00   -2.1505403358E+00
   -2.1428598297E+00   -2.1352340058E+00   -2.1276622739E+00   -2.1201440177E+00
   -2.1126787222E+00   -2.1052658307E+00   -2.0979047512E+00   -2.0905949683E+00
   -2.0833359640E+00   -2.0761271924E+00   -2.0689681134E+00   -2.0618582530E+00
   -2.0547971052E+00   -2.0477841255E+00   -2.0408188590E+00   -2.0339008303E+00
   -2.0270295407E+00   -2.0202045020E+00   -2.0134252836E+00   -2.0066914254E+00
   -2.0000024327E+00   -1.9933578878E+00   -1.9867573614E+00   -1.9802004055E+00
   -1.9736865614E+00   -1.9672154443E+00   -1.9607866361E+00   -1.9543996941E+00
   -1.9480542175E+00   -1.9417498256E+00   -1.9354861199E+00   -1.9292626656E+00
   -1.9230791121E+00   -1.9169350836E+00   -1.9108301928E+00   -1.9047640373E+00
   -1.8987362871E+00   -1.8927465797E+00   -1.8867945363E+00   -1.8808797946E+00
   -1.8750020320E+00   -1.8691609032E+00   -1.8633560394E+00   -1.8575871122E+00
   -1.8518538076E+00   -1.8461557962E+00   -1.8404927210E+00   -1.8348642815E+00
   -1.8292701736E+00   -1.8237100830E+00   -1.8181836656E+00   -1.8126906435E+00
   -1.8072307234E+00   -1.8018036056E+00   -1.7964089598E+00   -1.7910465257E+00
   -1.7857160219E+00   -1.7804171629E+00   -1.7751496327E+00   -1.7699131842E+00
   -1.7647075489E+00   -1.7595324547E+00   -1.7543876011E+00   -1.7492727493E+00
   -1.7441876454E+00   -1.7391320297E+00   -1.7341056178E+00   -1.7291081757E+00
   -1.7241394644E+00   -1.7191992364E+00   -1.7142872244E+00   -1.7094031948E+00
   -1.7045469248E+00   -1.6997181783E+00   -1.6949167061E+00   -1.6901422715E+00
   -1.6853946682E+00   -1.6806736714E+00   -1.6759790505E+00   -1.6713105628E+00
   -1.6666680189E+00   -1.6620512045E+00   -1.6574599051E+00   -1.6528938801E+00
   -1.6483529463E+00   -1.6438369028E+00   -1.6393455454E+00   -1.6348786535E+00
   -1.6304360298E+00   -1.6260174932E+00   -1.6216228490E+00   -1.6172518980E+00
   -1.6129044260E+00   -1.6085802719E+00   -1.6042792496E+00   -1.6000011735E+00
   -1.5957458382E+00   -1.5915130741E+00   -1.5873027132E+00   -1.5831145782E+00
   -1.5789484868E+00   -1.5748042461E+00   -1.5706817095E+00   -1.5665807081E+00
   -1.5625010729E+00   -1.5584426181E+00   -1.5544051863E+00   -1.5503886267E+00
   -1.5463927783E+00   -1.5424174796E+00   -1.5384625446E+00   -1.5345278452E+00
   -1.5306132277E+00   -1.5267185387E+00   -1.5228436155E+00   -1.5189882991E+00
   -1.5151524601E+00   -1.5113359521E+00   -1.5075386286E+00   -1.5037603276E+00
   -1.5000009128E+00   -1.4962602544E+00   -1.4925382128E+00   -1.4888346484E+00
   -1.4851494012E+00   -1.4814823535E+00   -1.4778333762E+00   -1.4742023363E+00
   -1.4705891005E+00   -1.4669935126E+00   -1.4634154689E+00   -1.4598548427E+00
   -1.4563115069E+00   -1.4527853324E+00   -1.4492761745E+00   -1.4457839331E+00
   -1.4423084872E+00   -1.4388497157E+00   -1.4354074941E+00   -1.4319816866E+00
   -1.4285721972E+00   -1.4251789106E+00   -1.4218017114E+00   -1.4184404813E+00
   -1.4150950900E+00   -1.4117654463E+00   -1.4084514401E+00   -1.4051529615E+00
   -1.4018698991E+00   -1.3986021241E+00   -1.3953495522E+00   -1.3921120786E+00
   -1.3888895984E+00   -1.3856820070E+00   -1.3824891801E+00   -1.3793110352E+00
   -1.3761474739E+00   -1.3729983963E+00   -1.3698637023E+00   -1.3667432769E+00
   -1.3636370329E+00   -1.3605448808E+00   -1.3574667252E+00   -1.3544024710E+00
   -1.3513520131E+00   -1.3483152571E+00   -1.3452921231E+00   -1.3422825202E+00
   -1.3392863575E+00   -1.3363035412E+00   -1.3333339673E+00   -1.3303775659E+00
   -1.3274342504E+00   -1.3245039343E+00   -1.3215865308E+00   -1.3186819386E+00
   -1.3157900843E+00   -1.3129108899E+00   -1.3100442728E+00   -1.3071901505E+00
   -1.3043484344E+00   -1.3015190360E+00   -1.2987018897E+00   -1.2958969167E+00
   -1.2931040383E+00   -1.2903231757E+00   -1.2875542356E+00   -1.2847971529E+00
   -1.2820518565E+00   -1.2793182712E+00   -1.2765963220E+00   -1.2738859299E+00
   -1.2711870103E+00   -1.2684995059E+00   -1.2658233450E+00   -1.2631584561E+00
   -1.2605047677E+00   -1.2578621980E+00   -1.2552306798E+00   -1.2526101524E+00
   -1.2500005478E+00   -1.2474017976E+00   -1.2448138336E+00   -1.2422365731E+00
   -1.2396699623E+00   -1.2371139390E+00   -1.2345684379E+00   -1.2320333941E+00
   -1.2295087415E+00   -1.2269944006E+00   -1.2244903250E+00   -1.2219964527E+00
   -1.2195127216E+00   -1.2170390698E+00   -1.2145754318E+00   -1.2121217365E+00
   -1.2096779379E+00   -1.2072439768E+00   -1.2048197941E+00   -1.2024053306E+00
   -1.2000005227E+00   -1.1976053050E+00   -1.1952196326E+00   -1.1928434492E+00
   -1.1904766984E+00   -1.1881193239E+00   -1.1857712647E+00   -1.1834324585E+00
   -1.1811028627E+00   -1.1787824237E+00   -1.1764710876E+00   -1.1741688007E+00
   -1.1718755059E+00   -1.1695911414E+00   -1.1673156678E+00   -1.1650490340E+00
   -1.1627911887E+00   -1.1605420806E+00   -1.1583016574E+00   -1.1560698554E+00
   -1.1538466395E+00   -1.1516319607E+00   -1.1494257703E+00   -1.1472280194E+00
   -1.1450386591E+00   -1.1428576281E+00   -1.1406848899E+00   -1.1385203999E+00
   -1.1363641116E+00   -1.1342159784E+00   -1.1320759538E+00   -1.1299439829E+00
   -1.1278200224E+00   -1.1257040341E+00   -1.1235959736E+00   -1.1214957964E+00
   -1.1194034581E+00   -1.1173189115E+00   -1.1152421044E+00   -1.1131730054E+00
   -1.1111115723E+00   -1.1090577627E+00   -1.1070115343E+00   -1.1049728447E+00
   -1.1029416412E+00   -1.1009178900E+00   -1.0989015541E+00   -1.0968925931E+00
   -1.0948909666E+00   -1.0928966343E+00   -1.0909095525E+00   -1.0889296745E+00
   -1.0869569718E+00   -1.0849914061E+00   -1.0830329387E+00   -1.0810815313E+00
   -1.0791371453E+00   -1.0771997338E+00   -1.0752692632E+00   -1.0733457016E+00
   -1.0714290121E+00   -1.0695191582E+00   -1.0676161031E+00   -1.0657198101E+00
   -1.0638302303E+00   -1.0619473406E+00   -1.0600711062E+00   -1.0582014922E+00
   -1.0563384637E+00   -1.0544819856E+00   -1.0526320203E+00   -1.0507885260E+00
   -1.0489514792E+00   -1.0471208466E+00   -1.0452965946E+00   -1.0434786901E+00
   -1.0416670996E+00   -1.0398617852E+00   -1.0380627111E+00   -1.0362698531E+00
   -1.0344831794E+00   -1.0327026582E+00   -1.0309282577E+00   -1.0291599462E+00
   -1.0273976862E+00   -1.0256414458E+00   -1.0238912011E+00   -1.0221469216E+00
   -1.0204085772E+00   -1.0186761374E+00   -1.0169495721E+00   -1.0152288455E+00
   -1.0135139269E+00   -1.0118047938E+00   -1.0101014172E+00   -1.0084037683E+00
   -1.0067118181E+00   -1.0050255378E+00   -1.0033448942E+00   -1.0016698560E+00
   -1.0000004027E+00   -9.9833650683E-01
  </PP_LOCAL>
 <PP_NONLOCAL>
   <PP_BETA.1
       type="real"
       size=" 602"
       columns="4"
       index="1"
       angular_momentum="0"
       cutoff_radius_index=" 194"
       cutoff_radius="    1.9300000000E+00" >
    0.0000000000E+00    6.2450125696E-03    1.2453124690E-02    1.8587458080E-02
    2.4611181489E-02    3.0487540904E-02    3.6179897680E-02    4.1651777011E-02
    4.6866929024E-02    5.1789404553E-02    5.6383647419E-02    6.0614604736E-02
    6.4447856509E-02    6.7849765408E-02    7.0787647245E-02    7.3229962419E-02
    7.5146527939E-02    7.6508749706E-02    7.7289873683E-02    7.7465254919E-02
    7.7012642218E-02    7.5912476918E-02    7.4148202469E-02    7.1706582359E-02
    6.8578022997E-02    6.4756899364E-02    6.0241875596E-02    5.5036223236E-02
    4.9148126383E-02    4.2590973132E-02    3.5383628426E-02    2.7550682978E-02
    1.9122674046E-02    1.0136278524E-02    6.3446032758E-04   -9.3334108104E-03
   -1.9711496020E-02   -3.0437459668E-02   -4.1442504866E-02   -5.2651454620E-02
   -6.3982888707E-02   -7.5349344548E-02   -8.6657572897E-02   -9.7808855425E-02
   -1.0869938334E-01   -1.1922069685E-01   -1.2926018459E-01   -1.3870163401E-01
   -1.4742586126E-01   -1.5531137297E-01   -1.6223508470E-01   -1.6807305120E-01
   -1.7270136775E-01   -1.7599692998E-01   -1.7783830337E-01   -1.7810676851E-01
   -1.7668697686E-01   -1.7346827011E-01   -1.6834514578E-01   -1.6121873745E-01
   -1.5199720568E-01   -1.4059710489E-01   -1.2694402645E-01   -1.1097334995E-01
   -9.2631501498E-02   -7.1876268128E-02   -4.8677504220E-02   -2.3018280020E-02
    5.1050530931E-03    3.5682231159E-02    6.8688750905E-02    1.0408515781E-01
    1.4181724357E-01    1.8181578398E-01    2.2399651192E-01    2.6826020196E-01