<UPF version="2.0.1">
  <PP_INFO>

 Cl_ONCV_PBE_FR-1.1.upf

 This pseudopotential file has been produced using the code
 ONCVPSP  (Optimized Norm-Conservinng Vanderbilt PSeudopotential)
 fully-relativistic version 2.1.1, 03/26/2014 by D. R. Hamann
 The code is available through a link at URL www.mat-simresearch.com.
 Documentation with the package provides a full description of the
 input data below.

 While it is not required under the terms of the GNU GPL, it is
 suggested that you cite D. R. Hamann, Phys. Rev. B 88, 085117 (2013)
 in any publication using these pseudopotentials.

 -----

 This pseudopotential was produced with the SG15 1.0 and/or 1.1
 parameter sets, the Schlipf-Gygi norm-conserving pseudopotential
 library. For details of the construction and testing of the
 pseudopotential please refer to:

 M. Schlipf, F. Gygi, Comp. Phys. Comm. 196, 36 (2015)
 http://dx.doi.org/10.1016/j.cpc.2015.05.011

 The above authors kindly ask that you include this reference in all
 publications associated to this pseudopotential.

 Please note this fully-relativistic version does not employ the
 above self-consistent procedure at the fully-relativistic level.

 -----

 This pseudopotential was produced by Peter Scherpelz for the purpose
 of performing GW calculations with spin-orbit-coupling. Please see
 the publication:

 P. Scherpelz, M. Govoni, I. Hamada, G. Galli; J. Chem. Theory Comput. (2016)
 http://dx.doi.org/10.1021/acs.jctc.6b00114

 If you use these pseudopotentials in your work, we also kindly ask
 that you cite the above publication.

 -----

 This work is licensed under the Creative Commons Attribution-ShareAlike 
 4.0 International License. To view a copy of this license, visit 
 http://creativecommons.org/licenses/by-sa/4.0/ or send a letter to 
 Creative Commons, PO Box 1866, Mountain View, CA 94042, USA.

 The SG15 library is Copyright 2015 The Regents of the University of
 California.  Further modifications of these files are Copyright 2016
 Peter Scherpelz.

    <PP_INPUTFILE>
# ATOM AND REFERENCE CONFIGURATION
# atsym  z    nc    nv    iexc   psfile
  Cl 17.00     3     2     4      upf
#
#   n    l    f        energy (Ha)
    1    0    2.00
    2    0    2.00
    2    1    6.00
    3    0    2.00
    3    1    5.00
#
# PSEUDOPOTENTIAL AND OPTIMIZATION
# lmax
    1
#
#   l,   rc,     ep,   ncon, nbas, qcut
    0    3.23   -0.76    5    8    6.06
    1    1.62   -0.31    5    8    6.98
#
# LOCAL POTENTIAL
# lloc, lpopt,  rc(5),   dvloc0
    4    5      0.80       0.00
#
# VANDERBILT-KLEINMAN-BYLANDER PROJECTORs
# l, nproj, debl
    0    2    0.7476
    1    2    3.7210
#
# MODEL CORE CHARGE
# icmod, fcfact
    0    0.00
#
# LOG DERIVATIVE ANALYSIS
# epsh1, epsh2, depsh
   -5.00    3.00    0.02
#
# OUTPUT GRID
# rlmax, drl
    6.00    0.01
#
# TEST CONFIGURATIONS
# ncnf
    0
# nvcnf
#   n    l    f
    </PP_INPUTFILE>
  </PP_INFO>
  <!--                               -->
  <!-- END OF HUMAN READABLE SECTION -->
  <!--                               -->
    <PP_HEADER
       generated="Generated using ONCVPSP code by D. R. Hamann"
       author="anonymous"
       date="150703"
       comment=""
       element="Cl"
       pseudo_type="NC"
       relativistic="full"
       is_ultrasoft="F"
       is_paw="F"
       is_coulomb="F"
       has_so="T"
       has_wfc="F"
       has_gipaw="F"
       core_correction="F"
       functional="PBE"
       z_valence="    7.00"
       total_psenergy="  -1.50236534070E+01"
       rho_cutoff="   6.01000000000E+00"
       l_max="1"
       l_local="-1"
       mesh_size="   602"
       number_of_wfc="0"
       number_of_proj="6"/>
 <PP_MESH>
   <PP_R type="real"  size=" 602" columns="8">
    0.0000    0.0100    0.0200    0.0300    0.0400    0.0500    0.0600    0.0700
    0.0800    0.0900    0.1000    0.1100    0.1200    0.1300    0.1400    0.1500
    0.1600    0.1700    0.1800    0.1900    0.2000    0.2100    0.2200    0.2300
    0.2400    0.2500    0.2600    0.2700    0.2800    0.2900    0.3000    0.3100
    0.3200    0.3300    0.3400    0.3500    0.3600    0.3700    0.3800    0.3900
    0.4000    0.4100    0.4200    0.4300    0.4400    0.4500    0.4600    0.4700
    0.4800    0.4900    0.5000    0.5100    0.5200    0.5300    0.5400    0.5500
    0.5600    0.5700    0.5800    0.5900    0.6000    0.6100    0.6200    0.6300
    0.6400    0.6500    0.6600    0.6700    0.6800    0.6900    0.7000    0.7100
    0.7200    0.7300    0.7400    0.7500    0.7600    0.7700    0.7800    0.7900
    0.8000    0.8100    0.8200    0.8300    0.8400    0.8500    0.8600    0.8700
    0.8800    0.8900    0.9000    0.9100    0.9200    0.9300    0.9400    0.9500
    0.9600    0.9700    0.9800    0.9900    1.0000    1.0100    1.0200    1.0300
    1.0400    1.0500    1.0600    1.0700    1.0800    1.0900    1.1000    1.1100
    1.1200    1.1300    1.1400    1.1500    1.1600    1.1700    1.1800    1.1900
    1.2000    1.2100    1.2200    1.2300    1.2400    1.2500    1.2600    1.2700
    1.2800    1.2900    1.3000    1.3100    1.3200    1.3300    1.3400    1.3500
    1.3600    1.3700    1.3800    1.3900    1.4000    1.4100    1.4200    1.4300
    1.4400    1.4500    1.4600    1.4700    1.4800    1.4900    1.5000    1.5100
    1.5200    1.5300    1.5400    1.5500    1.5600    1.5700    1.5800    1.5900
    1.6000    1.6100    1.6200    1.6300    1.6400    1.6500    1.6600    1.6700
    1.6800    1.6900    1.7000    1.7100    1.7200    1.7300    1.7400    1.7500
    1.7600    1.7700    1.7800    1.7900    1.8000    1.8100    1.8200    1.8300
    1.8400    1.8500    1.8600    1.8700    1.8800    1.8900    1.9000    1.9100
    1.9200    1.9300    1.9400    1.9500    1.9600    1.9700    1.9800    1.9900
    2.0000    2.0100    2.0200    2.0300    2.0400    2.0500    2.0600    2.0700
    2.0800    2.0900    2.1000    2.1100    2.1200    2.1300    2.1400    2.1500
    2.1600    2.1700    2.1800    2.1900    2.2000    2.2100    2.2200    2.2300
    2.2400    2.2500    2.2600    2.2700    2.2800    2.2900    2.3000    2.3100
    2.3200    2.3300    2.3400    2.3500    2.3600    2.3700    2.3800    2.3900
    2.4000    2.4100    2.4200    2.4300    2.4400    2.4500    2.4600    2.4700
    2.4800    2.4900    2.5000    2.5100    2.5200    2.5300    2.5400    2.5500
    2.5600    2.5700    2.5800    2.5900    2.6000    2.6100    2.6200    2.6300
    2.6400    2.6500    2.6600    2.6700    2.6800    2.6900    2.7000    2.7100
    2.7200    2.7300    2.7400    2.7500    2.7600    2.7700    2.7800    2.7900
    2.8000    2.8100    2.8200    2.8300    2.8400    2.8500    2.8600    2.8700
    2.8800    2.8900    2.9000    2.9100    2.9200    2.9300    2.9400    2.9500
    2.9600    2.9700    2.9800    2.9900    3.0000    3.0100    3.0200    3.0300
    3.0400    3.0500    3.0600    3.0700    3.0800    3.0900    3.1000    3.1100
    3.1200    3.1300    3.1400    3.1500    3.1600    3.1700    3.1800    3.1900
    3.2000    3.2100    3.2200    3.2300    3.2400    3.2500    3.2600    3.2700
    3.2800    3.2900    3.3000    3.3100    3.3200    3.3300    3.3400    3.3500
    3.3600    3.3700    3.3800    3.3900    3.4000    3.4100    3.4200    3.4300
    3.4400    3.4500    3.4600    3.4700    3.4800    3.4900    3.5000    3.5100
    3.5200    3.5300    3.5400    3.5500    3.5600    3.5700    3.5800    3.5900
    3.6000    3.6100    3.6200    3.6300    3.6400    3.6500    3.6600    3.6700
    3.6800    3.6900    3.7000    3.7100    3.7200    3.7300    3.7400    3.7500
    3.7600    3.7700    3.7800    3.7900    3.8000    3.8100    3.8200    3.8300
    3.8400    3.8500    3.8600    3.8700    3.8800    3.8900    3.9000    3.9100
    3.9200    3.9300    3.9400    3.9500    3.9600    3.9700    3.9800    3.9900
    4.0000    4.0100    4.0200    4.0300    4.0400    4.0500    4.0600    4.0700
    4.0800    4.0900    4.1000    4.1100    4.1200    4.1300    4.1400    4.1500
    4.1600    4.1700    4.1800    4.1900    4.2000    4.2100    4.2200    4.2300
    4.2400    4.2500    4.2600    4.2700    4.2800    4.2900    4.3000    4.3100
    4.3200    4.3300    4.3400    4.3500    4.3600    4.3700    4.3800    4.3900
    4.4000    4.4100    4.4200    4.4300    4.4400    4.4500    4.4600    4.4700
    4.4800    4.4900    4.5000    4.5100    4.5200    4.5300    4.5400    4.5500
    4.5600    4.5700    4.5800    4.5900    4.6000    4.6100    4.6200    4.6300
    4.6400    4.6500    4.6600    4.6700    4.6800    4.6900    4.7000    4.7100
    4.7200    4.7300    4.7400    4.7500    4.7600    4.7700    4.7800    4.7900
    4.8000    4.8100    4.8200    4.8300    4.8400    4.8500    4.8600    4.8700
    4.8800    4.8900    4.9000    4.9100    4.9200    4.9300    4.9400    4.9500
    4.9600    4.9700    4.9800    4.9900    5.0000    5.0100    5.0200    5.0300
    5.0400    5.0500    5.0600    5.0700    5.0800    5.0900    5.1000    5.1100
    5.1200    5.1300    5.1400    5.1500    5.1600    5.1700    5.1800    5.1900
    5.2000    5.2100    5.2200    5.2300    5.2400    5.2500    5.2600    5.2700
    5.2800    5.2900    5.3000    5.3100    5.3200    5.3300    5.3400    5.3500
    5.3600    5.3700    5.3800    5.3900    5.4000    5.4100    5.4200    5.4300
    5.4400    5.4500    5.4600    5.4700    5.4800    5.4900    5.5000    5.5100
    5.5200    5.5300    5.5400    5.5500    5.5600    5.5700    5.5800    5.5900
    5.6000    5.6100    5.6200    5.6300    5.6400    5.6500    5.6600    5.6700
    5.6800    5.6900    5.7000    5.7100    5.7200    5.7300    5.7400    5.7500
    5.7600    5.7700    5.7800    5.7900    5.8000    5.8100    5.8200    5.8300
    5.8400    5.8500    5.8600    5.8700    5.8800    5.8900    5.9000    5.9100
    5.9200    5.9300    5.9400    5.9500    5.9600    5.9700    5.9800    5.9900
    6.0000    6.0100
   </PP_R>
   <PP_RAB type="real"  size=" 602" columns="8">
    0.0100    0.0100    0.0100    0.0100    0.0100    0.0100    0.0100    0.0100
    0.0100    0.0100    0.0100    0.0100    0.0100    0.0100    0.0100    0.0100
    0.0100    0.0100    0.0100    0.0100    0.0100    0.0100    0.0100    0.0100
    0.0100    0.0100    0.0100    0.0100    0.0100    0.0100    0.0100    0.0100
    0.0100    0.0100    0.0100    0.0100    0.0100    0.0100    0.0100    0.0100
    0.0100    0.0100    0.0100    0.0100    0.0100    0.0100    0.0100    0.0100
    0.0100    0.0100    0.0100    0.0100    0.0100    0.0100    0.0100    0.0100
    0.0100    0.0100    0.0100    0.0100    0.0100    0.0100    0.0100    0.0100
    0.0100    0.0100    0.0100    0.0100    0.0100    0.0100    0.0100    0.0100
    0.0100    0.0100    0.0100    0.0100    0.0100    0.0100    0.0100    0.0100
    0.0100    0.0100    0.0100    0.0100    0.0100    0.0100    0.0100    0.0100
    0.0100    0.0100    0.0100    0.0100    0.0100    0.0100    0.0100    0.0100
    0.0100    0.0100    0.0100    0.0100    0.0100    0.0100    0.0100    0.0100
    0.0100    0.0100    0.0100    0.0100    0.0100    0.0100    0.0100    0.0100
    0.0100    0.0100    0.0100    0.0100    0.0100    0.0100    0.0100    0.0100
    0.0100    0.0100    0.0100    0.0100    0.0100    0.0100    0.0100    0.0100
    0.0100    0.0100    0.0100    0.0100    0.0100    0.0100    0.0100    0.0100
    0.0100    0.0100    0.0100    0.0100    0.0100    0.0100    0.0100    0.0100
    0.0100    0.0100    0.0100    0.0100    0.0100    0.0100    0.0100    0.0100
    0.0100    0.0100    0.0100    0.0100    0.0100    0.0100    0.0100    0.0100
    0.0100    0.0100    0.0100    0.0100    0.0100    0.0100    0.0100    0.0100
    0.0100    0.0100    0.0100    0.0100    0.0100    0.0100    0.0100    0.0100
    0.0100    0.0100    0.0100    0.0100    0.0100    0.0100    0.0100    0.0100
    0.0100    0.0100    0.0100    0.0100    0.0100    0.0100    0.0100    0.0100
    0.0100    0.0100    0.0100    0.0100    0.0100    0.0100    0.0100    0.0100
    0.0100    0.0100    0.0100    0.0100    0.0100    0.0100    0.0100    0.0100
    0.0100    0.0100    0.0100    0.0100    0.0100    0.0100    0.0100    0.0100
    0.0100    0.0100    0.0100    0.0100    0.0100    0.0100    0.0100    0.0100
    0.0100    0.0100    0.0100    0.0100    0.0100    0.0100    0.0100    0.0100
    0.0100    0.0100    0.0100    0.0100    0.0100    0.0100    0.0100    0.0100
    0.0100    0.0100    0.0100    0.0100    0.0100    0.0100    0.0100    0.0100
    0.0100    0.0100    0.0100    0.0100    0.0100    0.0100    0.0100    0.0100
    0.0100    0.0100    0.0100    0.0100    0.0100    0.0100    0.0100    0.0100
    0.0100    0.0100    0.0100    0.0100    0.0100    0.0100    0.0100    0.0100
    0.0100    0.0100    0.0100    0.0100    0.0100    0.0100    0.0100    0.0100
    0.0100    0.0100    0.0100    0.0100    0.0100    0.0100    0.0100    0.0100
    0.0100    0.0100    0.0100    0.0100    0.0100    0.0100    0.0100    0.0100
    0.0100    0.0100    0.0100    0.0100    0.0100    0.0100    0.0100    0.0100
    0.0100    0.0100    0.0100    0.0100    0.0100    0.0100    0.0100    0.0100
    0.0100    0.0100    0.0100    0.0100    0.0100    0.0100    0.0100    0.0100
    0.0100    0.0100    0.0100    0.0100    0.0100    0.0100    0.0100    0.0100
    0.0100    0.0100    0.0100    0.0100    0.0100    0.0100    0.0100    0.0100
    0.0100    0.0100    0.0100    0.0100    0.0100    0.0100    0.0100    0.0100
    0.0100    0.0100    0.0100    0.0100    0.0100    0.0100    0.0100    0.0100
    0.0100    0.0100    0.0100    0.0100    0.0100    0.0100    0.0100    0.0100
    0.0100    0.0100    0.0100    0.0100    0.0100    0.0100    0.0100    0.0100
    0.0100    0.0100    0.0100    0.0100    0.0100    0.0100    0.0100    0.0100
    0.0100    0.0100    0.0100    0.0100    0.0100    0.0100    0.0100    0.0100
    0.0100    0.0100    0.0100    0.0100    0.0100    0.0100    0.0100    0.0100
    0.0100    0.0100    0.0100    0.0100    0.0100    0.0100    0.0100    0.0100
    0.0100    0.0100    0.0100    0.0100    0.0100    0.0100    0.0100    0.0100
    0.0100    0.0100    0.0100    0.0100    0.0100    0.0100    0.0100    0.0100
    0.0100    0.0100    0.0100    0.0100    0.0100    0.0100    0.0100    0.0100
    0.0100    0.0100    0.0100    0.0100    0.0100    0.0100    0.0100    0.0100
    0.0100    0.0100    0.0100    0.0100    0.0100    0.0100    0.0100    0.0100
    0.0100    0.0100    0.0100    0.0100    0.0100    0.0100    0.0100    0.0100
    0.0100    0.0100    0.0100    0.0100    0.0100    0.0100    0.0100    0.0100
    0.0100    0.0100    0.0100    0.0100    0.0100    0.0100    0.0100    0.0100
    0.0100    0.0100    0.0100    0.0100    0.0100    0.0100    0.0100    0.0100
    0.0100    0.0100    0.0100    0.0100    0.0100    0.0100    0.0100    0.0100
    0.0100    0.0100    0.0100    0.0100    0.0100    0.0100    0.0100    0.0100
    0.0100    0.0100    0.0100    0.0100    0.0100    0.0100    0.0100    0.0100
    0.0100    0.0100    0.0100    0.0100    0.0100    0.0100    0.0100    0.0100
    0.0100    0.0100    0.0100    0.0100    0.0100    0.0100    0.0100    0.0100
    0.0100    0.0100    0.0100    0.0100    0.0100    0.0100    0.0100    0.0100
    0.0100    0.0100    0.0100    0.0100    0.0100    0.0100    0.0100    0.0100
    0.0100    0.0100    0.0100    0.0100    0.0100    0.0100    0.0100    0.0100
    0.0100    0.0100    0.0100    0.0100    0.0100    0.0100    0.0100    0.0100
    0.0100    0.0100    0.0100    0.0100    0.0100    0.0100    0.0100    0.0100
    0.0100    0.0100    0.0100    0.0100    0.0100    0.0100    0.0100    0.0100
    0.0100    0.0100    0.0100    0.0100    0.0100    0.0100    0.0100    0.0100
    0.0100    0.0100    0.0100    0.0100    0.0100    0.0100    0.0100    0.0100
    0.0100    0.0100    0.0100    0.0100    0.0100    0.0100    0.0100    0.0100
    0.0100    0.0100    0.0100    0.0100    0.0100    0.0100    0.0100    0.0100
    0.0100    0.0100    0.0100    0.0100    0.0100    0.0100    0.0100    0.0100
    0.0100    0.0100
   </PP_RAB>
 </PP_MESH>
  <PP_LOCAL type="real"  size=" 602" columns="4">
   -3.7642147523E+01   -3.7638207669E+01   -3.7626404034E+01   -3.7606720087E+01
   -3.7579139296E+01   -3.7543639126E+01   -3.7500191644E+01   -3.7448764323E+01
   -3.7389321010E+01   -3.7321823076E+01   -3.7246230718E+01   -3.7162504392E+01
   -3.7070606345E+01   -3.6970502197E+01   -3.6862162534E+01   -3.6745564451E+01
   -3.6620693005E+01   -3.6487542516E+01   -3.6346117695E+01   -3.6196434552E+01
   -3.6038521077E+01   -3.5872417678E+01   -3.5698177392E+01   -3.5515865870E+01
   -3.5325561174E+01   -3.5127353398E+01   -3.4921344180E+01   -3.4707646081E+01
   -3.4486381932E+01   -3.4257684129E+01   -3.4021693933E+01   -3.3778560777E+01
   -3.3528441613E+01   -3.3271500301E+01   -3.3007907067E+01   -3.2737838010E+01
   -3.2461474684E+01   -3.2179003729E+01   -3.1890616605E+01   -3.1596509343E+01
   -3.1296882383E+01   -3.0991940472E+01   -3.0681892616E+01   -3.0366952087E+01
   -3.0047336490E+01   -2.9723267881E+01   -2.9394972939E+01   -2.9062683194E+01
   -2.8726635303E+01   -2.8387071360E+01   -2.8044239265E+01   -2.7698393198E+01
   -2.7349793978E+01   -2.6998709549E+01   -2.6645415638E+01   -2.6290195990E+01
   -2.5933343292E+01   -2.5575159304E+01   -2.5215955855E+01   -2.4856054864E+01
   -2.4495789525E+01   -2.4135504104E+01   -2.3775555090E+01   -2.3416311361E+01
   -2.3058154357E+01   -2.2701479312E+01   -2.2346694988E+01   -2.1994224071E+01
   -2.1644503916E+01   -2.1297986812E+01   -2.0955140072E+01   -2.0616446453E+01
   -2.0282404241E+01   -1.9953528280E+01   -1.9630349512E+01   -1.9313415495E+01
   -1.9003290679E+01   -1.8700556702E+01   -1.8405812671E+01   -1.8119675470E+01
   -1.7842780045E+01   -1.7575776258E+01   -1.7319315893E+01   -1.7073966397E+01
   -1.6840112563E+01   -1.6617870957E+01   -1.6407034432E+01   -1.6207057125E+01
   -1.6017083837E+01   -1.5836019983E+01   -1.5662626490E+01   -1.5495635758E+01
   -1.5333852372E+01   -1.5176232288E+01   -1.5021929902E+01   -1.4870312451E+01
   -1.4720947680E+01   -1.4573573908E+01   -1.4428061899E+01   -1.4284374962E+01
   -1.4142539669E+01   -1.4002610711E+01   -1.3864654156E+01   -1.3728734984E+01
   -1.3594909354E+01   -1.3463221676E+01   -1.3333699802E+01   -1.3206358897E+01
   -1.3081201951E+01   -1.2958221560E+01   -1.2837401320E+01   -1.2718716753E+01
   -1.2602138531E+01   -1.2487633067E+01   -1.2375163533E+01   -1.2264690306E+01
   -1.2156172580E+01   -1.2049568523E+01   -1.1944835583E+01   -1.1841931052E+01
   -1.1740812316E+01   -1.1641436854E+01   -1.1543762744E+01   -1.1447748548E+01
   -1.1353353255E+01   -1.1260536784E+01   -1.1169259785E+01   -1.1079483433E+01
   -1.0991170040E+01   -1.0904282788E+01   -1.0818785368E+01   -1.0734642898E+01
   -1.0651821323E+01   -1.0570287084E+01   -1.0490008433E+01   -1.0410954092E+01
   -1.0333093762E+01   -1.0256398724E+01   -1.0180840542E+01   -1.0106392460E+01
   -1.0033028563E+01   -9.9607235308E+00   -9.8894538981E+00   -9.8191962357E+00
   -9.7499287940E+00   -9.6816304075E+00   -9.6142806138E+00   -9.5478603717E+00
   -9.4823504822E+00   -9.4177335328E+00   -9.3539919024E+00   -9.2911091315E+00
   -9.2290690495E+00   -9.1678559980E+00   -9.1074549225E+00   -9.0478508312E+00
   -8.9890294506E+00   -8.9309763254E+00   -8.8736776417E+00   -8.8171193951E+00
   -8.7612879458E+00   -8.7061695837E+00   -8.6517509231E+00   -8.5980186795E+00
   -8.5449603342E+00   -8.4925634697E+00   -8.4408165298E+00   -8.3897078721E+00
   -8.3392261396E+00   -8.2893601303E+00   -8.2400990370E+00   -8.1914321361E+00
   -8.1433490942E+00   -8.0958396120E+00   -8.0488938187E+00   -8.0025017960E+00
   -7.9566541328E+00   -7.9113412569E+00   -7.8665542087E+00   -7.8222837291E+00
   -7.7785212969E+00   -7.7352579536E+00   -7.6924855503E+00   -7.6501955323E+00
   -7.6083799841E+00   -7.5670307931E+00   -7.5261402419E+00   -7.4857006635E+00
   -7.4457045082E+00   -7.4061445537E+00   -7.3670133949E+00   -7.3283042252E+00
   -7.2900098388E+00   -7.2521237045E+00   -7.2146390000E+00   -7.1775492788E+00
   -7.1408481684E+00   -7.1045292779E+00   -7.0685866708E+00   -7.0330140368E+00
   -6.9978057364E+00   -6.9629558169E+00   -6.9284586463E+00   -6.8943087310E+00
   -6.8605004210E+00   -6.8270286082E+00   -6.7938878297E+00   -6.7610730834E+00
   -6.7285793242E+00   -6.6964014821E+00   -6.6645349241E+00   -6.6329746777E+00
   -6.6017162525E+00   -6.5707550758E+00   -6.5400865440E+00   -6.5097064876E+00
   -6.4796104143E+00   -6.4497942346E+00   -6.4202538734E+00   -6.3909850884E+00
   -6.3619841615E+00   -6.3332470747E+00   -6.3047700345E+00   -6.2765494533E+00
   -6.2485814531E+00   -6.2208626533E+00   -6.1933895396E+00   -6.1661585198E+00
   -6.1391664463E+00   -6.1124099014E+00   -6.0858856473E+00   -6.0595906606E+00
   -6.0335216573E+00   -6.0076757199E+00   -5.9820499411E+00   -5.9566411774E+00
   -5.9314467918E+00   -5.9064639597E+00   -5.8816897764E+00   -5.8571217520E+00
   -5.8327571783E+00   -5.8085933850E+00   -5.7846279981E+00   -5.7608584345E+00
   -5.7372822283E+00   -5.7138971173E+00   -5.6907006433E+00   -5.6676905149E+00
   -5.6448645793E+00   -5.6222205013E+00   -5.5997561367E+00   -5.5774694391E+00
   -5.5553581948E+00   -5.5334203805E+00   -5.5116540547E+00   -5.4900571214E+00
   -5.4686276557E+00   -5.4473638181E+00   -5.4262636274E+00   -5.4053252362E+00
   -5.3845469044E+00   -5.3639267617E+00   -5.3434630207E+00   -5.3231540371E+00
   -5.3029980483E+00   -5.2829933112E+00   -5.2631382737E+00   -5.2434312773E+00
   -5.2238706108E+00   -5.2044548098E+00   -5.1851823098E+00   -5.1660514416E+00
   -5.1470608036E+00   -5.1282089078E+00   -5.1094941819E+00   -5.0909152200E+00
   -5.0724706260E+00   -5.0541589240E+00   -5.0359786941E+00   -5.0179286291E+00
   -5.0000073490E+00   -4.9822134132E+00   -4.9645455990E+00   -4.9470025950E+00
   -4.9295830159E+00   -4.9122856385E+00   -4.8951092326E+00   -4.8780525062E+00
   -4.8611141917E+00   -4.8442931489E+00   -4.8275881737E+00   -4.8109979762E+00
   -4.7945214741E+00   -4.7781575231E+00   -4.7619049274E+00   -4.7457625402E+00
   -4.7297293132E+00   -4.7138041422E+00   -4.6979858374E+00   -4.6822734133E+00
   -4.6666658233E+00   -4.6511619771E+00   -4.6357608036E+00   -4.6204613582E+00
   -4.6052626320E+00   -4.5901635443E+00   -4.5751631639E+00   -4.5602605554E+00
   -4.5454547480E+00   -4.5307447022E+00   -4.5161295891E+00   -4.5016084918E+00
   -4.4871804538E+00   -4.4728445526E+00   -4.4585999776E+00   -4.4444458567E+00
   -4.4303812528E+00   -4.4164053500E+00   -4.4025173559E+00   -4.3887164421E+00
   -4.3750016990E+00   -4.3613724003E+00   -4.3478277719E+00   -4.3343670236E+00
   -4.3209892904E+00   -4.3076939017E+00   -4.2944801063E+00   -4.2813471402E+00
   -4.2682942042E+00   -4.2553206438E+00   -4.2424257392E+00   -4.2296087502E+00
   -4.2168689200E+00   -4.2042056290E+00   -4.1916181920E+00   -4.1791059017E+00
   -4.1666680431E+00   -4.1543040229E+00   -4.1420131878E+00   -4.1297948640E+00
   -4.1176483658E+00   -4.1055731303E+00   -4.0935685347E+00   -4.0816339412E+00
   -4.0697686834E+00   -4.0579722308E+00   -4.0462439894E+00   -4.0345833600E+00
   -4.0229896861E+00   -4.0114624711E+00   -4.0000011488E+00   -3.9886051531E+00
   -3.9772738510E+00   -3.9660067594E+00   -3.9548033456E+00   -3.9436630700E+00
   -3.9325853417E+00   -3.9215696661E+00   -3.9106155513E+00   -3.8997224828E+00
   -3.8888899147E+00   -3.8781173322E+00   -3.8674042859E+00   -3.8567502852E+00
   -3.8461548312E+00   -3.8356173828E+00   -3.8251375331E+00   -3.8147148142E+00
   -3.8043487584E+00   -3.7940388468E+00   -3.7837846610E+00   -3.7735857725E+00
   -3.7634417354E+00   -3.7533520813E+00   -3.7433163482E+00   -3.7333341557E+00
   -3.7234050786E+00   -3.7135286917E+00   -3.7037045144E+00   -3.6939321838E+00
   -3.6842113042E+00   -3.6745414701E+00   -3.6649222546E+00   -3.6553532371E+00
   -3.6458340737E+00   -3.6363643779E+00   -3.6269437631E+00   -3.6175717962E+00
   -3.6082481347E+00   -3.5989724259E+00   -3.5897443013E+00   -3.5805633851E+00
   -3.5714292649E+00   -3.5623416422E+00   -3.5533001657E+00   -3.5443044839E+00
   -3.5353542200E+00   -3.5264490206E+00   -3.5175885849E+00   -3.5087725782E+00
   -3.5000006653E+00   -3.4912724718E+00   -3.4825876936E+00   -3.4739460302E+00
   -3.4653471624E+00   -3.4567907707E+00   -3.4482764867E+00   -3.4398040456E+00
   -3.4313731501E+00   -3.4229834958E+00   -3.4146347775E+00   -3.4063266379E+00
   -3.3980588401E+00   -3.3898310939E+00   -3.3816431089E+00   -3.3734945897E+00
   -3.3653852038E+00   -3.3573147228E+00   -3.3492828699E+00   -3.3412893684E+00
   -3.3333339352E+00   -3.3254162548E+00   -3.3175361096E+00   -3.3096932357E+00
   -3.3018873691E+00   -3.2941182421E+00   -3.2863855484E+00   -3.2786890834E+00
   -3.2710285956E+00   -3.2634038334E+00   -3.2558145452E+00   -3.2482604308E+00
   -3.2407412973E+00   -3.2332569060E+00   -3.2258070171E+00   -3.2183913905E+00
   -3.2110097466E+00   -3.2036618851E+00   -3.1963475865E+00   -3.1890666222E+00
   -3.1818187636E+00   -3.1746037530E+00   -3.1674213770E+00   -3.1602714374E+00
   -3.1531537160E+00   -3.1460679949E+00   -3.1390140412E+00   -3.1319916222E+00
   -3.1250005625E+00   -3.1180406542E+00   -3.1111116894E+00   -3.1042134603E+00
   -3.0973457153E+00   -3.0905082976E+00   -3.0837010107E+00   -3.0769236564E+00
   -3.0701760367E+00   -3.0634579284E+00   -3.0567691426E+00   -3.0501095108E+00
   -3.0434788442E+00   -3.0368769536E+00   -3.0303036470E+00   -3.0237586990E+00
   -3.0172419695E+00   -3.0107532783E+00   -3.0042924454E+00   -2.9978592905E+00
   -2.9914536108E+00   -2.9850752328E+00   -2.9787240050E+00   -2.9723997557E+00
   -2.9661023133E+00   -2.9598315058E+00   -2.9535871236E+00   -2.9473690366E+00
   -2.9411770845E+00   -2.9350111036E+00   -2.9288709302E+00   -2.9227563905E+00
   -2.9166673015E+00   -2.9106035380E+00   -2.9045649439E+00   -2.8985513631E+00
   -2.8925626394E+00   -2.8865985967E+00   -2.8806590822E+00   -2.8747439672E+00
   -2.8688531028E+00   -2.8629863402E+00   -2.8571435306E+00   -2.8513244985E+00
   -2.8455291137E+00   -2.8397572468E+00   -2.8340087559E+00   -2.8282834992E+00
   -2.8225813347E+00   -2.8169020901E+00   -2.8112456513E+00   -2.8056118908E+00
   -2.8000006731E+00   -2.7944118630E+00   -2.7888453253E+00   -2.7833008934E+00
   -2.7777784625E+00   -2.7722779095E+00   -2.7667991054E+00   -2.7613419212E+00
   -2.7559062280E+00   -2.7504918670E+00   -2.7450987371E+00   -2.7397267220E+00
   -2.7343756986E+00   -2.7290455439E+00   -2.7237361351E+00   -2.7184473234E+00
   -2.7131790056E+00   -2.7079310743E+00   -2.7027034123E+00   -2.6974959023E+00
   -2.6923084271E+00   -2.6871408504E+00   -2.6819930611E+00   -2.6768649631E+00
   -2.6717564447E+00   -2.6666673941E+00   -2.6615976995E+00   -2.6565472387E+00
   -2.6515158882E+00   -2.6465035651E+00   -2.6415101626E+00   -2.6365355742E+00
   -2.6315796935E+00   -2.6266424136E+00   -2.6217235960E+00   -2.6168231704E+00
   -2.6119410358E+00   -2.6070770904E+00   -2.6022312328E+00   -2.5974033613E+00
   -2.5925933553E+00   -2.5878011213E+00   -2.5830265760E+00   -2.5782696225E+00
   -2.5735301639E+00   -2.5688081033E+00   -2.5641033402E+00   -2.5594157540E+00
   -2.5547452802E+00   -2.5500918262E+00   -2.5454552999E+00   -2.5408356087E+00
   -2.5362326603E+00   -2.5316463450E+00   -2.5270765765E+00   -2.5225232804E+00
   -2.5179863686E+00   -2.5134657529E+00   -2.5089613455E+00   -2.5044730581E+00
   -2.5000007749E+00   -2.4955444374E+00   -2.4911039636E+00   -2.4866792696E+00
   -2.4822702714E+00   -2.4778768850E+00   -2.4734990199E+00   -2.4691365769E+00
   -2.4647894985E+00   -2.4604577047E+00   -2.4561411156E+00   -2.4518396509E+00
   -2.4475532308E+00   -2.4432817625E+00   -2.4390251639E+00   -2.4347833748E+00
   -2.4305563191E+00   -2.4263439204E+00   -2.4221461023E+00   -2.4179627885E+00
   -2.4137938868E+00   -2.4096393265E+00   -2.4054990471E+00   -2.4013729757E+00
   -2.3972610397E+00   -2.3931631662E+00   -2.3890792826E+00   -2.3850092992E+00
   -2.3809531514E+00   -2.3769107805E+00   -2.3728821171E+00   -2.3688670918E+00
   -2.3648656353E+00   -2.3608776783E+00   -2.3569031359E+00   -2.3529419444E+00
   -2.3489940493E+00   -2.3450593844E+00   -2.3411378834E+00   -2.3372294804E+00
   -2.3333341091E+00   -2.3294516915E+00
  </PP_LOCAL>
 <PP_NONLOCAL>
   <PP_BETA.1
       type="real"
       size=" 602"
       columns="4"
       index="1"
       angular_momentum="0"
       cutoff_radius_index=" 326"
       cutoff_radius="    3.2500000000E+00" >
    0.0000000000E+00   -2.3741875495E-04   -4.4396761287E-04   -5.8905805125E-04
   -6.4266249250E-04   -5.7559027440E-04   -3.5975824220E-04    3.1545792490E-05
    6.2340844356E-04    1.4390466767E-03    2.4995758894E-03    3.8237917240E-03
    5.4279671124E-03    7.3256660017E-03    9.5275750404E-03    1.2041354630E-02
    1.4871510295E-02    1.8019285690E-02    2.1482577901E-02    2.5255876195E-02
    2.9330224557E-02    3.3693209050E-02    3.8328969983E-02    4.3218239481E-02
    4.8338404586E-02    5.3663595726E-02    5.9164800778E-02    6.4810003828E-02
    7.0564348721E-02    7.6390326543E-02    8.2247986243E-02    8.8095167517E-02
    9.3887754802E-02    9.9579949506E-02    1.0512456332E-01    1.1047332580E-01
    1.1557720781E-01    1.2038675313E-01    1.2485243326E-01    1.2892499321E-01
    1.3255581384E-01    1.3569727460E-01    1.3830311603E-01    1.4032879908E-01
    1.4173185827E-01    1.4247224530E-01    1.4251265958E-01    1.4181886211E-01
    1.4035996834E-01    1.3810871091E-01    1.3504168135E-01    1.3113956320E-01
    1.2638726223E-01    1.2077404760E-01    1.1429367808E-01    1.0694435147E-01
    9.8728786985E-02    8.9654044857E-02    7.9731471484E-02    6.8976407853E-02
    5.7407974801E-02    4.5048657009E-02    3.1923882661E-02    1.8061473635E-02
    3.4910678608E-03   -1.1756698105E-02   -2.7650942732E-02   -4.4161429140E-02
   -6.1259697775E-02   -7.8920231291E-02   -9.7121645222E-02   -1.1584810952E-01
   -1.3509073324E-01   -1.5484965242E-01   -1.7513541656E-01   -1.9597103386E-01