<UPF version="2.0.1">
  <PP_INFO>

 Co_ONCV_PBE_FR-1.0.upf

 This pseudopotential file has been produced using the code
 ONCVPSP  (Optimized Norm-Conservinng Vanderbilt PSeudopotential)
 fully-relativistic version 2.1.1, 03/26/2014 by D. R. Hamann
 The code is available through a link at URL www.mat-simresearch.com.
 Documentation with the package provides a full description of the
 input data below.

 While it is not required under the terms of the GNU GPL, it is
 suggested that you cite D. R. Hamann, Phys. Rev. B 88, 085117 (2013)
 in any publication using these pseudopotentials.

 -----

 This pseudopotential was produced with the SG15 1.0 and/or 1.1
 parameter sets, the Schlipf-Gygi norm-conserving pseudopotential
 library. For details of the construction and testing of the
 pseudopotential please refer to:

 M. Schlipf, F. Gygi, Comp. Phys. Comm. 196, 36 (2015)
 http://dx.doi.org/10.1016/j.cpc.2015.05.011

 The above authors kindly ask that you include this reference in all
 publications associated to this pseudopotential.

 Please note this fully-relativistic version does not employ the
 above self-consistent procedure at the fully-relativistic level.

 -----

 This pseudopotential was produced by Peter Scherpelz for the purpose
 of performing GW calculations with spin-orbit-coupling. Please see
 the publication:

 P. Scherpelz, M. Govoni, I. Hamada, G. Galli; J. Chem. Theory Comput. (2016)
 http://dx.doi.org/10.1021/acs.jctc.6b00114

 If you use these pseudopotentials in your work, we also kindly ask
 that you cite the above publication.

 -----

 This work is licensed under the Creative Commons Attribution-ShareAlike 
 4.0 International License. To view a copy of this license, visit 
 http://creativecommons.org/licenses/by-sa/4.0/ or send a letter to 
 Creative Commons, PO Box 1866, Mountain View, CA 94042, USA.

 The SG15 library is Copyright 2015 The Regents of the University of
 California.  Further modifications of these files are Copyright 2016
 Peter Scherpelz.

    <PP_INPUTFILE>
# ATOM AND REFERENCE CONFIGURATION
# atsym  z    nc    nv    iexc   psfile
  Co 27.00     3     4     4      upf
#
#   n    l    f        energy (Ha)
    1    0    2.00
    2    0    2.00
    2    1    6.00
    3    0    2.00
    3    1    6.00
    4    0    2.00
    3    2    7.00
#
# PSEUDOPOTENTIAL AND OPTIMIZATION
# lmax
    2
#
#   l,   rc,     ep,   ncon, nbas, qcut
    0    2.16   -3.76    5    8    6.20
    1    2.06   -2.39    5    8    7.49
    2    2.18   -0.30    5    8    7.73
#
# LOCAL POTENTIAL
# lloc, lpopt,  rc(5),   dvloc0
    4    5      1.92       0.00
#
# VANDERBILT-KLEINMAN-BYLANDER PROJECTORs
# l, nproj, debl
    0    2    3.5614
    1    2    2.8521
    2    2    1.1084
#
# MODEL CORE CHARGE
# icmod, fcfact
    0    0.00
#
# LOG DERIVATIVE ANALYSIS
# epsh1, epsh2, depsh
   -5.00    3.00    0.02
#
# OUTPUT GRID
# rlmax, drl
    6.00    0.01
#
# TEST CONFIGURATIONS
# ncnf
    0
# nvcnf
#   n    l    f
    </PP_INPUTFILE>
  </PP_INFO>
  <!--                               -->
  <!-- END OF HUMAN READABLE SECTION -->
  <!--                               -->
    <PP_HEADER
       generated="Generated using ONCVPSP code by D. R. Hamann"
       author="anonymous"
       date="150703"
       comment=""
       element="Co"
       pseudo_type="NC"
       relativistic="full"
       is_ultrasoft="F"
       is_paw="F"
       is_coulomb="F"
       has_so="T"
       has_wfc="F"
       has_gipaw="F"
       core_correction="F"
       functional="PBE"
       z_valence="   17.00"
       total_psenergy="  -1.35189600617E+02"
       rho_cutoff="   6.01000000000E+00"
       l_max="2"
       l_local="-1"
       mesh_size="   602"
       number_of_wfc="0"
       number_of_proj="10"/>
 <PP_MESH>
   <PP_R type="real"  size=" 602" columns="8">
    0.0000    0.0100    0.0200    0.0300    0.0400    0.0500    0.0600    0.0700
    0.0800    0.0900    0.1000    0.1100    0.1200    0.1300    0.1400    0.1500
    0.1600    0.1700    0.1800    0.1900    0.2000    0.2100    0.2200    0.2300
    0.2400    0.2500    0.2600    0.2700    0.2800    0.2900    0.3000    0.3100
    0.3200    0.3300    0.3400    0.3500    0.3600    0.3700    0.3800    0.3900
    0.4000    0.4100    0.4200    0.4300    0.4400    0.4500    0.4600    0.4700
    0.4800    0.4900    0.5000    0.5100    0.5200    0.5300    0.5400    0.5500
    0.5600    0.5700    0.5800    0.5900    0.6000    0.6100    0.6200    0.6300
    0.6400    0.6500    0.6600    0.6700    0.6800    0.6900    0.7000    0.7100
    0.7200    0.7300    0.7400    0.7500    0.7600    0.7700    0.7800    0.7900
    0.8000    0.8100    0.8200    0.8300    0.8400    0.8500    0.8600    0.8700
    0.8800    0.8900    0.9000    0.9100    0.9200    0.9300    0.9400    0.9500
    0.9600    0.9700    0.9800    0.9900    1.0000    1.0100    1.0200    1.0300
    1.0400    1.0500    1.0600    1.0700    1.0800    1.0900    1.1000    1.1100
    1.1200    1.1300    1.1400    1.1500    1.1600    1.1700    1.1800    1.1900
    1.2000    1.2100    1.2200    1.2300    1.2400    1.2500    1.2600    1.2700
    1.2800    1.2900    1.3000    1.3100    1.3200    1.3300    1.3400    1.3500
    1.3600    1.3700    1.3800    1.3900    1.4000    1.4100    1.4200    1.4300
    1.4400    1.4500    1.4600    1.4700    1.4800    1.4900    1.5000    1.5100
    1.5200    1.5300    1.5400    1.5500    1.5600    1.5700    1.5800    1.5900
    1.6000    1.6100    1.6200    1.6300    1.6400    1.6500    1.6600    1.6700
    1.6800    1.6900    1.7000    1.7100    1.7200    1.7300    1.7400    1.7500
    1.7600    1.7700    1.7800    1.7900    1.8000    1.8100    1.8200    1.8300
    1.8400    1.8500    1.8600    1.8700    1.8800    1.8900    1.9000    1.9100
    1.9200    1.9300    1.9400    1.9500    1.9600    1.9700    1.9800    1.9900
    2.0000    2.0100    2.0200    2.0300    2.0400    2.0500    2.0600    2.0700
    2.0800    2.0900    2.1000    2.1100    2.1200    2.1300    2.1400    2.1500
    2.1600    2.1700    2.1800    2.1900    2.2000    2.2100    2.2200    2.2300
    2.2400    2.2500    2.2600    2.2700    2.2800    2.2900    2.3000    2.3100
    2.3200    2.3300    2.3400    2.3500    2.3600    2.3700    2.3800    2.3900
    2.4000    2.4100    2.4200    2.4300    2.4400    2.4500    2.4600    2.4700
    2.4800    2.4900    2.5000    2.5100    2.5200    2.5300    2.5400    2.5500
    2.5600    2.5700    2.5800    2.5900    2.6000    2.6100    2.6200    2.6300
    2.6400    2.6500    2.6600    2.6700    2.6800    2.6900    2.7000    2.7100
    2.7200    2.7300    2.7400    2.7500    2.7600    2.7700    2.7800    2.7900
    2.8000    2.8100    2.8200    2.8300    2.8400    2.8500    2.8600    2.8700
    2.8800    2.8900    2.9000    2.9100    2.9200    2.9300    2.9400    2.9500
    2.9600    2.9700    2.9800    2.9900    3.0000    3.0100    3.0200    3.0300
    3.0400    3.0500    3.0600    3.0700    3.0800    3.0900    3.1000    3.1100
    3.1200    3.1300    3.1400    3.1500    3.1600    3.1700    3.1800    3.1900
    3.2000    3.2100    3.2200    3.2300    3.2400    3.2500    3.2600    3.2700
    3.2800    3.2900    3.3000    3.3100    3.3200    3.3300    3.3400    3.3500
    3.3600    3.3700    3.3800    3.3900    3.4000    3.4100    3.4200    3.4300
    3.4400    3.4500    3.4600    3.4700    3.4800    3.4900    3.5000    3.5100
    3.5200    3.5300    3.5400    3.5500    3.5600    3.5700    3.5800    3.5900
    3.6000    3.6100    3.6200    3.6300    3.6400    3.6500    3.6600    3.6700
    3.6800    3.6900    3.7000    3.7100    3.7200    3.7300    3.7400    3.7500
    3.7600    3.7700    3.7800    3.7900    3.8000    3.8100    3.8200    3.8300
    3.8400    3.8500    3.8600    3.8700    3.8800    3.8900    3.9000    3.9100
    3.9200    3.9300    3.9400    3.9500    3.9600    3.9700    3.9800    3.9900
    4.0000    4.0100    4.0200    4.0300    4.0400    4.0500    4.0600    4.0700
    4.0800    4.0900    4.1000    4.1100    4.1200    4.1300    4.1400    4.1500
    4.1600    4.1700    4.1800    4.1900    4.2000    4.2100    4.2200    4.2300
    4.2400    4.2500    4.2600    4.2700    4.2800    4.2900    4.3000    4.3100
    4.3200    4.3300    4.3400    4.3500    4.3600    4.3700    4.3800    4.3900
    4.4000    4.4100    4.4200    4.4300    4.4400    4.4500    4.4600    4.4700
    4.4800    4.4900    4.5000    4.5100    4.5200    4.5300    4.5400    4.5500
    4.5600    4.5700    4.5800    4.5900    4.6000    4.6100    4.6200    4.6300
    4.6400    4.6500    4.6600    4.6700    4.6800    4.6900    4.7000    4.7100
    4.7200    4.7300    4.7400    4.7500    4.7600    4.7700    4.7800    4.7900
    4.8000    4.8100    4.8200    4.8300    4.8400    4.8500    4.8600    4.8700
    4.8800    4.8900    4.9000    4.9100    4.9200    4.9300    4.9400    4.9500
    4.9600    4.9700    4.9800    4.9900    5.0000    5.0100    5.0200    5.0300
    5.0400    5.0500    5.0600    5.0700    5.0800    5.0900    5.1000    5.1100
    5.1200    5.1300    5.1400    5.1500    5.1600    5.1700    5.1800    5.1900
    5.2000    5.2100    5.2200    5.2300    5.2400    5.2500    5.2600    5.2700
    5.2800    5.2900    5.3000    5.3100    5.3200    5.3300    5.3400    5.3500
    5.3600    5.3700    5.3800    5.3900    5.4000    5.4100    5.4200    5.4300
    5.4400    5.4500    5.4600    5.4700    5.4800    5.4900    5.5000    5.5100
    5.5200    5.5300    5.5400    5.5500    5.5600    5.5700    5.5800    5.5900
    5.6000    5.6100    5.6200    5.6300    5.6400    5.6500    5.6600    5.6700
    5.6800    5.6900    5.7000    5.7100    5.7200    5.7300    5.7400    5.7500
    5.7600    5.7700    5.7800    5.7900    5.8000    5.8100    5.8200    5.8300
    5.8400    5.8500    5.8600    5.8700    5.8800    5.8900    5.9000    5.9100
    5.9200    5.9300    5.9400    5.9500    5.9600    5.9700    5.9800    5.9900
    6.0000    6.0100
   </PP_R>
   <PP_RAB type="real"  size=" 602" columns="8">
    0.0100    0.0100    0.0100    0.0100    0.0100    0.0100    0.0100    0.0100
    0.0100    0.0100    0.0100    0.0100    0.0100    0.0100    0.0100    0.0100
    0.0100    0.0100    0.0100    0.0100    0.0100    0.0100    0.0100    0.0100
    0.0100    0.0100    0.0100    0.0100    0.0100    0.0100    0.0100    0.0100
    0.0100    0.0100    0.0100    0.0100    0.0100    0.0100    0.0100    0.0100
    0.0100    0.0100    0.0100    0.0100    0.0100    0.0100    0.0100    0.0100
    0.0100    0.0100    0.0100    0.0100    0.0100    0.0100    0.0100    0.0100
    0.0100    0.0100    0.0100    0.0100    0.0100    0.0100    0.0100    0.0100
    0.0100    0.0100    0.0100    0.0100    0.0100    0.0100    0.0100    0.0100
    0.0100    0.0100    0.0100    0.0100    0.0100    0.0100    0.0100    0.0100
    0.0100    0.0100    0.0100    0.0100    0.0100    0.0100    0.0100    0.0100
    0.0100    0.0100    0.0100    0.0100    0.0100    0.0100    0.0100    0.0100
    0.0100    0.0100    0.0100    0.0100    0.0100    0.0100    0.0100    0.0100
    0.0100    0.0100    0.0100    0.0100    0.0100    0.0100    0.0100    0.0100
    0.0100    0.0100    0.0100    0.0100    0.0100    0.0100    0.0100    0.0100
    0.0100    0.0100    0.0100    0.0100    0.0100    0.0100    0.0100    0.0100
    0.0100    0.0100    0.0100    0.0100    0.0100    0.0100    0.0100    0.0100
    0.0100    0.0100    0.0100    0.0100    0.0100    0.0100    0.0100    0.0100
    0.0100    0.0100    0.0100    0.0100    0.0100    0.0100    0.0100    0.0100
    0.0100    0.0100    0.0100    0.0100    0.0100    0.0100    0.0100    0.0100
    0.0100    0.0100    0.0100    0.0100    0.0100    0.0100    0.0100    0.0100
    0.0100    0.0100    0.0100    0.0100    0.0100    0.0100    0.0100    0.0100
    0.0100    0.0100    0.0100    0.0100    0.0100    0.0100    0.0100    0.0100
    0.0100    0.0100    0.0100    0.0100    0.0100    0.0100    0.0100    0.0100
    0.0100    0.0100    0.0100    0.0100    0.0100    0.0100    0.0100    0.0100
    0.0100    0.0100    0.0100    0.0100    0.0100    0.0100    0.0100    0.0100
    0.0100    0.0100    0.0100    0.0100    0.0100    0.0100    0.0100    0.0100
    0.0100    0.0100    0.0100    0.0100    0.0100    0.0100    0.0100    0.0100
    0.0100    0.0100    0.0100    0.0100    0.0100    0.0100    0.0100    0.0100
    0.0100    0.0100    0.0100    0.0100    0.0100    0.0100    0.0100    0.0100
    0.0100    0.0100    0.0100    0.0100    0.0100    0.0100    0.0100    0.0100
    0.0100    0.0100    0.0100    0.0100    0.0100    0.0100    0.0100    0.0100
    0.0100    0.0100    0.0100    0.0100    0.0100    0.0100    0.0100    0.0100
    0.0100    0.0100    0.0100    0.0100    0.0100    0.0100    0.0100    0.0100
    0.0100    0.0100    0.0100    0.0100    0.0100    0.0100    0.0100    0.0100
    0.0100    0.0100    0.0100    0.0100    0.0100    0.0100    0.0100    0.0100
    0.0100    0.0100    0.0100    0.0100    0.0100    0.0100    0.0100    0.0100
    0.0100    0.0100    0.0100    0.0100    0.0100    0.0100    0.0100    0.0100
    0.0100    0.0100    0.0100    0.0100    0.0100    0.0100    0.0100    0.0100
    0.0100    0.0100    0.0100    0.0100    0.0100    0.0100    0.0100    0.0100
    0.0100    0.0100    0.0100    0.0100    0.0100    0.0100    0.0100    0.0100
    0.0100    0.0100    0.0100    0.0100    0.0100    0.0100    0.0100    0.0100
    0.0100    0.0100    0.0100    0.0100    0.0100    0.0100    0.0100    0.0100
    0.0100    0.0100    0.0100    0.0100    0.0100    0.0100    0.0100    0.0100
    0.0100    0.0100    0.0100    0.0100    0.0100    0.0100    0.0100    0.0100
    0.0100    0.0100    0.0100    0.0100    0.0100    0.0100    0.0100    0.0100
    0.0100    0.0100    0.0100    0.0100    0.0100    0.0100    0.0100    0.0100
    0.0100    0.0100    0.0100    0.0100    0.0100    0.0100    0.0100    0.0100
    0.0100    0.0100    0.0100    0.0100    0.0100    0.0100    0.0100    0.0100
    0.0100    0.0100    0.0100    0.0100    0.0100    0.0100    0.0100    0.0100
    0.0100    0.0100    0.0100    0.0100    0.0100    0.0100    0.0100    0.0100
    0.0100    0.0100    0.0100    0.0100    0.0100    0.0100    0.0100    0.0100
    0.0100    0.0100    0.0100    0.0100    0.0100    0.0100    0.0100    0.0100
    0.0100    0.0100    0.0100    0.0100    0.0100    0.0100    0.0100    0.0100
    0.0100    0.0100    0.0100    0.0100    0.0100    0.0100    0.0100    0.0100
    0.0100    0.0100    0.0100    0.0100    0.0100    0.0100    0.0100    0.0100
    0.0100    0.0100    0.0100    0.0100    0.0100    0.0100    0.0100    0.0100
    0.0100    0.0100    0.0100    0.0100    0.0100    0.0100    0.0100    0.0100
    0.0100    0.0100    0.0100    0.0100    0.0100    0.0100    0.0100    0.0100
    0.0100    0.0100    0.0100    0.0100    0.0100    0.0100    0.0100    0.0100
    0.0100    0.0100    0.0100    0.0100    0.0100    0.0100    0.0100    0.0100
    0.0100    0.0100    0.0100    0.0100    0.0100    0.0100    0.0100    0.0100
    0.0100    0.0100    0.0100    0.0100    0.0100    0.0100    0.0100    0.0100
    0.0100    0.0100    0.0100    0.0100    0.0100    0.0100    0.0100    0.0100
    0.0100    0.0100    0.0100    0.0100    0.0100    0.0100    0.0100    0.0100
    0.0100    0.0100    0.0100    0.0100    0.0100    0.0100    0.0100    0.0100
    0.0100    0.0100    0.0100    0.0100    0.0100    0.0100    0.0100    0.0100
    0.0100    0.0100    0.0100    0.0100    0.0100    0.0100    0.0100    0.0100
    0.0100    0.0100    0.0100    0.0100    0.0100    0.0100    0.0100    0.0100
    0.0100    0.0100    0.0100    0.0100    0.0100    0.0100    0.0100    0.0100
    0.0100    0.0100    0.0100    0.0100    0.0100    0.0100    0.0100    0.0100
    0.0100    0.0100    0.0100    0.0100    0.0100    0.0100    0.0100    0.0100
    0.0100    0.0100    0.0100    0.0100    0.0100    0.0100    0.0100    0.0100
    0.0100    0.0100    0.0100    0.0100    0.0100    0.0100    0.0100    0.0100
    0.0100    0.0100    0.0100    0.0100    0.0100    0.0100    0.0100    0.0100
    0.0100    0.0100
   </PP_RAB>
 </PP_MESH>
  <PP_LOCAL type="real"  size=" 602" columns="4">
   -4.3178641589E+01   -4.3178612282E+01   -4.3178998730E+01   -4.3179178975E+01
   -4.3178531061E+01   -4.3176313489E+01   -4.3171758250E+01   -4.3164152477E+01
   -4.3152897545E+01   -4.3137541686E+01   -4.3117788324E+01   -4.3093485962E+01
   -4.3064606599E+01   -4.3031219026E+01   -4.2993461761E+01   -4.2951518624E+01
   -4.2905598462E+01   -4.2855919416E+01   -4.2802697455E+01   -4.2746138555E+01
   -4.2686433787E+01   -4.2623756605E+01   -4.2558261697E+01   -4.2490084926E+01
   -4.2419343945E+01   -4.2346139234E+01   -4.2270555331E+01   -4.2192662156E+01
   -4.2112516315E+01   -4.2030162346E+01   -4.1945633879E+01   -4.1858954694E+01
   -4.1770139680E+01   -4.1679195717E+01   -4.1586122423E+01   -4.1490912907E+01
   -4.1393554372E+01   -4.1294028761E+01   -4.1192313295E+01   -4.1088381032E+01
   -4.0982201411E+01   -4.0873740798E+01   -4.0762963040E+01   -4.0649830049E+01
   -4.0534302418E+01   -4.0416340060E+01   -4.0295902899E+01   -4.0172951585E+01
   -4.0047448246E+01   -3.9919357248E+01   -3.9788646027E+01   -3.9655285853E+01
   -3.9519252566E+01   -3.9380527448E+01   -3.9239097808E+01   -3.9094957638E+01
   -3.8948108274E+01   -3.8798558623E+01   -3.8646325806E+01   -3.8491435051E+01
   -3.8333920045E+01   -3.8173822779E+01   -3.8011193236E+01   -3.7846089486E+01
   -3.7678576868E+01   -3.7508727661E+01   -3.7336620666E+01   -3.7162340327E+01
   -3.6985976097E+01   -3.6807621895E+01   -3.6627375279E+01   -3.6445336747E+01
   -3.6261609092E+01   -3.6076296763E+01   -3.5889505305E+01   -3.5701340782E+01
   -3.5511909302E+01   -3.5321316592E+01   -3.5129667622E+01   -3.4937066289E+01
   -3.4743615138E+01   -3.4549415141E+01   -3.4354565503E+01   -3.4159163514E+01
   -3.3963304423E+01   -3.3767081338E+01   -3.3570585142E+01   -3.3373904431E+01
   -3.3177125453E+01   -3.2980332062E+01   -3.2783605668E+01   -3.2587025195E+01
   -3.2390667037E+01   -3.2194605008E+01   -3.1998910295E+01   -3.1803651405E+01
   -3.1608894107E+01   -3.1414701419E+01   -3.1221133488E+01   -3.1028247417E+01
   -3.0836097371E+01   -3.0644734435E+01   -3.0454206554E+01   -3.0264558488E+01
   -3.0075831885E+01   -2.9888064631E+01   -2.9701291388E+01   -2.9515543377E+01
   -2.9330848426E+01   -2.9147231000E+01   -2.8964711500E+01   -2.8783307105E+01
   -2.8603031563E+01   -2.8423895689E+01   -2.8245906021E+01   -2.8069066364E+01
   -2.7893377644E+01   -2.7718838065E+01   -2.7545442527E+01   -2.7373184009E+01
   -2.7202053664E+01   -2.7032040342E+01   -2.6863131666E+01   -2.6695314399E+01
   -2.6528574377E+01   -2.6362897275E+01   -2.6198268901E+01   -2.6034675337E+01
   -2.5872103951E+01   -2.5710542922E+01   -2.5549981904E+01   -2.5390412996E+01
   -2.5231829324E+01   -2.5074226884E+01   -2.4917604275E+01   -2.4761961015E+01
   -2.4607300931E+01   -2.4453629051E+01   -2.4300952430E+01   -2.4149281457E+01
   -2.3998626872E+01   -2.3849002419E+01   -2.3700422590E+01   -2.3552902977E+01
   -2.3406460420E+01   -2.3261111791E+01   -2.3116874464E+01   -2.2973765384E+01
   -2.2831801330E+01   -2.2690997535E+01   -2.2551369439E+01   -2.2412928998E+01
   -2.2275689066E+01   -2.2139657757E+01   -2.2004843504E+01   -2.1871250664E+01
   -2.1738882184E+01   -2.1607738375E+01   -2.1477816431E+01   -2.1349112509E+01
   -2.1221618470E+01   -2.1095326461E+01   -2.0970224078E+01   -2.0846299915E+01
   -2.0723538884E+01   -2.0601926829E+01   -2.0481447822E+01   -2.0362086088E+01
   -2.0243826663E+01   -2.0126653526E+01   -2.0010554123E+01   -1.9895513647E+01
   -1.9781522810E+01   -1.9668569354E+01   -1.9556647438E+01   -1.9445748325E+01
   -1.9335869204E+01   -1.9227005257E+01   -1.9119155916E+01   -1.9012319964E+01
   -1.8906498213E+01   -1.8801691995E+01   -1.8697902808E+01   -1.8595132897E+01
   -1.8493384023E+01   -1.8392657435E+01   -1.8292954938E+01   -1.8194275118E+01
   -1.8096619247E+01   -1.7999982892E+01   -1.7904364571E+01   -1.7809758164E+01
   -1.7716157635E+01   -1.7623555923E+01   -1.7531942957E+01   -1.7441310655E+01
   -1.7351646535E+01   -1.7262940649E+01   -1.7175179689E+01   -1.7088351013E+01
   -1.7002441295E+01   -1.6917435719E+01   -1.6833320612E+01   -1.6750080326E+01
   -1.6667699993E+01   -1.6586164348E+01   -1.6505457968E+01   -1.6425565498E+01
   -1.6346472000E+01   -1.6268161954E+01   -1.6190621002E+01   -1.6113834581E+01
   -1.6037787971E+01   -1.5962468577E+01   -1.5887862012E+01   -1.5813956471E+01
   -1.5740740153E+01   -1.5668200230E+01   -1.5596327817E+01   -1.5525111779E+01
   -1.5454542796E+01   -1.5384612682E+01   -1.5315311965E+01   -1.5246632929E+01
   -1.5178567316E+01   -1.5111106860E+01   -1.5044243681E+01   -1.4977969413E+01
   -1.4912276409E+01   -1.4847157326E+01   -1.4782604270E+01   -1.4718610249E+01
   -1.4655168019E+01   -1.4592270113E+01   -1.4529909975E+01   -1.4468080567E+01
   -1.4406774999E+01   -1.4345986955E+01   -1.4285709651E+01   -1.4225936706E+01
   -1.4166662040E+01   -1.4107879127E+01   -1.4049582038E+01   -1.3991764922E+01
   -1.3934421516E+01   -1.3877546283E+01   -1.3821133605E+01   -1.3765177476E+01
   -1.3709672703E+01   -1.3654613897E+01   -1.3599995315E+01   -1.3545812052E+01
   -1.3492058954E+01   -1.3438730536E+01   -1.3385822136E+01   -1.3333328840E+01
   -1.3281245415E+01   -1.3229567404E+01   -1.3178290130E+01   -1.3127408612E+01
   -1.3076918559E+01   -1.3026815532E+01   -1.2977094803E+01   -1.2927752205E+01
   -1.2878783542E+01   -1.2830184337E+01   -1.2781950515E+01   -1.2734078118E+01
   -1.2686562925E+01   -1.2639400916E+01   -1.2592588374E+01   -1.2546121334E+01
   -1.2499995804E+01   -1.2454208301E+01   -1.2408755118E+01   -1.2363632271E+01
   -1.2318836499E+01   -1.2274364271E+01   -1.2230211849E+01   -1.2186375930E+01
   -1.2142853232E+01   -1.2099640276E+01   -1.2056733685E+01   -1.2014130423E+01
   -1.1971827272E+01   -1.1929820768E+01   -1.1888108104E+01   -1.1846686220E+01
   -1.1805551887E+01   -1.1764702184E+01   -1.1724134299E+01   -1.1683845270E+01
   -1.1643832023E+01   -1.1604091990E+01   -1.1564622388E+01   -1.1525420261E+01
   -1.1486482993E+01   -1.1447808019E+01   -1.1409392650E+01   -1.1371234070E+01
   -1.1333329960E+01   -1.1295677789E+01   -1.1258274888E+01   -1.1221118821E+01
   -1.1184207284E+01   -1.1147537865E+01   -1.1111107933E+01   -1.1074915384E+01
   -1.1038957932E+01   -1.1003233210E+01   -1.0967738847E+01   -1.0932472816E+01
   -1.0897432926E+01   -1.0862616849E+01   -1.0828022485E+01   -1.0793647843E+01
   -1.0759490830E+01   -1.0725549175E+01   -1.0691821007E+01   -1.0658304375E+01
   -1.0624997276E+01   -1.0591897523E+01   -1.0559003420E+01   -1.0526313066E+01
   -1.0493824518E+01   -1.0461535764E+01   -1.0429445162E+01   -1.0397550900E+01
   -1.0365851101E+01   -1.0334343899E+01   -1.0303027710E+01   -1.0271900807E+01
   -1.0240961385E+01   -1.0210207696E+01   -1.0179638220E+01   -1.0149251310E+01
   -1.0119045239E+01   -1.0089018348E+01   -1.0059169190E+01   -1.0029496192E+01
   -9.9999977113E+00   -9.9706721545E+00   -9.9415181470E+00   -9.9125341919E+00
   -9.8837187349E+00   -9.8550702219E+00   -9.8265873590E+00   -9.7982687191E+00
   -9.7701128426E+00   -9.7421181927E+00   -9.7142835604E+00   -9.6866075850E+00
   -9.6590889057E+00   -9.6317259860E+00   -9.6045177019E+00   -9.5774627569E+00
   -9.5505598535E+00   -9.5238075584E+00   -9.4972047143E+00   -9.4707501256E+00
   -9.4444425555E+00   -9.4182806799E+00   -9.3922632884E+00   -9.3663892899E+00
   -9.3406575050E+00   -9.3150667249E+00   -9.2896156699E+00   -9.2643033539E+00
   -9.2391286526E+00   -9.2140904415E+00   -9.1891874663E+00   -9.1644187381E+00
   -9.1397832202E+00   -9.1152798404E+00   -9.0909074673E+00   -9.0666650025E+00
   -9.0425515271E+00   -9.0185660190E+00   -8.9947074563E+00   -8.9709746801E+00
   -8.9473668265E+00   -8.9238829408E+00   -8.9005220484E+00   -8.8772831216E+00
   -8.8541651524E+00   -8.8311673135E+00   -8.8082886757E+00   -8.7855283102E+00
   -8.7628851754E+00   -8.7403584479E+00   -8.7179472804E+00   -8.6956507873E+00
   -8.6734680676E+00   -8.6513981245E+00   -8.6294402432E+00   -8.6075935794E+00
   -8.5858572886E+00   -8.5642304681E+00   -8.5427122600E+00   -8.5213019459E+00
   -8.4999987205E+00   -8.4788017789E+00   -8.4577102256E+00   -8.4367233179E+00
   -8.4158403393E+00   -8.3950605224E+00   -8.3743830994E+00   -8.3538071907E+00
   -8.3333321450E+00   -8.3129572550E+00   -8.2926817888E+00   -8.2725050148E+00
   -8.2524260759E+00   -8.2324443902E+00   -8.2125592669E+00   -8.1927700083E+00
   -8.1730759144E+00   -8.1534761639E+00   -8.1339702173E+00   -8.1145574093E+00
   -8.0952370749E+00   -8.0760085454E+00   -8.0568710371E+00   -8.0378240378E+00
   -8.0188669132E+00   -7.9999990292E+00   -7.9812197513E+00   -7.9625283260E+00
   -7.9439242633E+00   -7.9254069619E+00   -7.9069758171E+00   -7.8886302243E+00
   -7.8703694747E+00   -7.8521930740E+00   -7.8341004632E+00   -7.8160910657E+00
   -7.7981643050E+00   -7.7803195225E+00   -7.7625562040E+00   -7.7448738376E+00
   -7.7272718736E+00   -7.7097497624E+00   -7.6923069012E+00   -7.6749427403E+00
   -7.6576568200E+00   -7.6404486162E+00   -7.6233176049E+00   -7.6062632442E+00
   -7.5892849360E+00   -7.5723822757E+00   -7.5555547639E+00   -7.5388019008E+00
   -7.5221231869E+00   -7.5055180350E+00   -7.4889860274E+00   -7.4725267113E+00
   -7.4561396104E+00   -7.4398242484E+00   -7.4235801089E+00   -7.4074066942E+00
   -7.3913036191E+00   -7.3752704296E+00   -7.3593066714E+00   -7.3434118904E+00
   -7.3275855408E+00   -7.3118272645E+00   -7.2961366422E+00   -7.2805132409E+00
   -7.2649566276E+00   -7.2494663363E+00   -7.2340419022E+00   -7.2186829833E+00
   -7.2033891668E+00   -7.1881600398E+00   -7.1729951896E+00   -7.1578941334E+00
   -7.1428565097E+00   -7.1278819563E+00   -7.1129700799E+00   -7.0981204867E+00
   -7.0833327833E+00   -7.0686064788E+00   -7.0539412947E+00   -7.0393368559E+00
   -7.0247927871E+00   -7.0103087131E+00   -6.9958842353E+00   -6.9815189326E+00
   -6.9672125203E+00   -6.9529646406E+00   -6.9387749357E+00   -6.9246430480E+00
   -6.9105685807E+00   -6.8965511657E+00   -6.8825905177E+00   -6.8686862956E+00
   -6.8548381584E+00   -6.8410457649E+00   -6.8273087267E+00   -6.8136267127E+00
   -6.7999994428E+00   -6.7864265918E+00   -6.7729078347E+00   -6.7594428461E+00
   -6.7460312520E+00   -6.7326727424E+00   -6.7193670489E+00   -6.7061138614E+00
   -6.6929128698E+00   -6.6797637641E+00   -6.6666661901E+00   -6.6536198447E+00
   -6.6406244764E+00   -6.6276797896E+00   -6.6147854888E+00   -6.6019412784E+00
   -6.5891468293E+00   -6.5764018316E+00   -6.5637060562E+00   -6.5510592214E+00
   -6.5384610452E+00   -6.5259112460E+00   -6.5134095249E+00   -6.5009555527E+00
   -6.4885491273E+00   -6.4761899801E+00   -6.4638778423E+00   -6.4516124452E+00
   -6.4393935203E+00   -6.4272207228E+00   -6.4150938662E+00   -6.4030126996E+00
   -6.3909769667E+00   -6.3789864115E+00   -6.3670407777E+00   -6.3551397611E+00
   -6.3432831284E+00   -6.3314706673E+00   -6.3197021338E+00   -6.3079772835E+00
   -6.2962958724E+00   -6.2846576412E+00   -6.2730622995E+00   -6.2615096773E+00
   -6.2499995419E+00   -6.2385316604E+00   -6.2271057998E+00   -6.2157217275E+00
   -6.2043791572E+00   -6.1930778934E+00   -6.1818177374E+00   -6.1705984672E+00
   -6.1594198606E+00   -6.1482816959E+00   -6.1371837411E+00   -6.1261257208E+00
   -6.1151074877E+00   -6.1041288301E+00   -6.0931895363E+00   -6.0822893947E+00
   -6.0714281936E+00   -6.0606056860E+00   -6.0498216624E+00   -6.0390759587E+00
   -6.0283683731E+00   -6.0176987038E+00   -6.0070667490E+00   -5.9964723069E+00
   -5.9859151220E+00   -5.9753950358E+00   -5.9649118731E+00   -5.9544654416E+00
   -5.9440555489E+00   -5.9336820027E+00   -5.9233446104E+00   -5.9130431144E+00
   -5.9027773924E+00   -5.8925472644E+00   -5.8823525471E+00   -5.8721930571E+00
   -5.8620686107E+00   -5.8519790206E+00   -5.8419240447E+00   -5.8319035711E+00
   -5.8219174251E+00   -5.8119654315E+00   -5.8020474157E+00   -5.7921632026E+00
   -5.7823126114E+00   -5.7724954141E+00   -5.7627115036E+00   -5.7529607132E+00
   -5.7432428761E+00   -5.7335578256E+00   -5.7239053950E+00   -5.7142854152E+00
   -5.7046976602E+00   -5.6951420327E+00   -5.6856183737E+00   -5.6761265242E+00
   -5.6666663253E+00   -5.6572376181E+00
  </PP_LOCAL>
 <PP_NONLOCAL>
   <PP_BETA.1
       type="real"
       size=" 602"
       columns="4"
       index="1"
       angular_momentum="0"
       cutoff_radius_index=" 222"
       cutoff_radius="    2.2100000000E+00" >
    0.0000000000E+00   -3.9385746429E-02   -7.8731599651E-02   -1.1799773047E-01
   -1.5714443753E-01   -1.9613221089E-01   -2.3492179498E-01   -2.7347425111E-01
   -3.1175101899E-01   -3.4971397746E-01   -3.8732550403E-01   -4.2454853323E-01
   -4.6134661357E-01   -4.9768396300E-01   -5.3352552270E-01   -5.6883700919E-01
   -6.0358496448E-01   -6.3773680432E-01   -6.7126086429E-01   -7.0412644383E-01
   -7.3630384792E-01   -7.6776442649E-01   -7.9848061140E-01   -8.2842595104E-01
   -8.5757514234E-01   -8.8590406030E-01   -9.1338978497E-01   -9.4001062580E-01
   -9.6574614335E-01   -9.9057716849E-01   -1.0144858189E+00   -1.0374555132E+00
   -1.0594709821E+00   -1.0805182771E+00   -1.1005847775E+00   -1.1196591935E+00
   -1.1377315681E+00   -1.1547932760E+00   -1.1708370206E+00   -1.1858568281E+00
   -1.1998480405E+00   -1.2128073056E+00   -1.2247325652E+00   -1.2356230416E+00
   -1.2454792222E+00   -1.2543028424E+00   -1.2620968662E+00   -1.2688654664E+00
   -1.2746140024E+00   -1.2793489973E+00   -1.2830781122E+00   -1.2858101213E+00
   -1.2875548862E+00   -1.2883233245E+00   -1.2881273844E+00   -1.2869800142E+00
   -1.2848951290E+00   -1.2818875856E+00   -1.2779731421E+00   -1.2731684350E+00
   -1.2674909385E+00   -1.2609589343E+00   -1.2535914836E+00   -1.2454083786E+00
   -1.2364301239E+00   -1.2266778976E+00   -1.2161735062E+00   -1.2049393635E+00