<UPF version="2.0.1">
  <PP_INFO>

 Ge_ONCV_PBE_FR-1.0.upf

 This pseudopotential file has been produced using the code
 ONCVPSP  (Optimized Norm-Conservinng Vanderbilt PSeudopotential)
 fully-relativistic version 2.1.1, 03/26/2014 by D. R. Hamann
 The code is available through a link at URL www.mat-simresearch.com.
 Documentation with the package provides a full description of the
 input data below.

 While it is not required under the terms of the GNU GPL, it is
 suggested that you cite D. R. Hamann, Phys. Rev. B 88, 085117 (2013)
 in any publication using these pseudopotentials.

 -----

 This pseudopotential was produced with the SG15 1.0 and/or 1.1
 parameter sets, the Schlipf-Gygi norm-conserving pseudopotential
 library. For details of the construction and testing of the
 pseudopotential please refer to:

 M. Schlipf, F. Gygi, Comp. Phys. Comm. 196, 36 (2015)
 http://dx.doi.org/10.1016/j.cpc.2015.05.011

 The above authors kindly ask that you include this reference in all
 publications associated to this pseudopotential.

 Please note this fully-relativistic version does not employ the
 above self-consistent procedure at the fully-relativistic level.

 -----

 This pseudopotential was produced by Peter Scherpelz for the purpose
 of performing GW calculations with spin-orbit-coupling. Please see
 the publication:

 P. Scherpelz, M. Govoni, I. Hamada, G. Galli; J. Chem. Theory Comput. (2016)
 http://dx.doi.org/10.1021/acs.jctc.6b00114

 If you use these pseudopotentials in your work, we also kindly ask
 that you cite the above publication.

 -----

 This work is licensed under the Creative Commons Attribution-ShareAlike 
 4.0 International License. To view a copy of this license, visit 
 http://creativecommons.org/licenses/by-sa/4.0/ or send a letter to 
 Creative Commons, PO Box 1866, Mountain View, CA 94042, USA.

 The SG15 library is Copyright 2015 The Regents of the University of
 California.  Further modifications of these files are Copyright 2016
 Peter Scherpelz.

    <PP_INPUTFILE>
# ATOM AND REFERENCE CONFIGURATION
# atsym  z    nc    nv    iexc   psfile
  Ge 32.00     5     3     4      upf
#
#   n    l    f        energy (Ha)
    1    0    2.00
    2    0    2.00
    2    1    6.00
    3    0    2.00
    3    1    6.00
    3    2   10.00
    4    0    2.00
    4    1    2.00
#
# PSEUDOPOTENTIAL AND OPTIMIZATION
# lmax
    2
#
#   l,   rc,     ep,   ncon, nbas, qcut
    0    2.67   -0.43    5    8    5.51
    1    2.54   -0.14    5    8    5.21
    2    2.67   -1.07    5    8    6.36
#
# LOCAL POTENTIAL
# lloc, lpopt,  rc(5),   dvloc0
    4    5      2.03       0.00
#
# VANDERBILT-KLEINMAN-BYLANDER PROJECTORs
# l, nproj, debl
    0    2    1.6162
    1    2    1.3184
    2    2    1.2025
#
# MODEL CORE CHARGE
# icmod, fcfact
    0    0.00
#
# LOG DERIVATIVE ANALYSIS
# epsh1, epsh2, depsh
   -5.00    3.00    0.02
#
# OUTPUT GRID
# rlmax, drl
    6.00    0.01
#
# TEST CONFIGURATIONS
# ncnf
    0
# nvcnf
#   n    l    f
    </PP_INPUTFILE>
  </PP_INFO>
  <!--                               -->
  <!-- END OF HUMAN READABLE SECTION -->
  <!--                               -->
    <PP_HEADER
       generated="Generated using ONCVPSP code by D. R. Hamann"
       author="anonymous"
       date="150703"
       comment=""
       element="Ge"
       pseudo_type="NC"
       relativistic="full"
       is_ultrasoft="F"
       is_paw="F"
       is_coulomb="F"
       has_so="T"
       has_wfc="F"
       has_gipaw="F"
       core_correction="F"
       functional="PBE"
       z_valence="   14.00"
       total_psenergy="  -7.06172048951E+01"
       rho_cutoff="   6.01000000000E+00"
       l_max="2"
       l_local="-1"
       mesh_size="   602"
       number_of_wfc="0"
       number_of_proj="10"/>
 <PP_MESH>
   <PP_R type="real"  size=" 602" columns="8">
    0.0000    0.0100    0.0200    0.0300    0.0400    0.0500    0.0600    0.0700
    0.0800    0.0900    0.1000    0.1100    0.1200    0.1300    0.1400    0.1500
    0.1600    0.1700    0.1800    0.1900    0.2000    0.2100    0.2200    0.2300
    0.2400    0.2500    0.2600    0.2700    0.2800    0.2900    0.3000    0.3100
    0.3200    0.3300    0.3400    0.3500    0.3600    0.3700    0.3800    0.3900
    0.4000    0.4100    0.4200    0.4300    0.4400    0.4500    0.4600    0.4700
    0.4800    0.4900    0.5000    0.5100    0.5200    0.5300    0.5400    0.5500
    0.5600    0.5700    0.5800    0.5900    0.6000    0.6100    0.6200    0.6300
    0.6400    0.6500    0.6600    0.6700    0.6800    0.6900    0.7000    0.7100
    0.7200    0.7300    0.7400    0.7500    0.7600    0.7700    0.7800    0.7900
    0.8000    0.8100    0.8200    0.8300    0.8400    0.8500    0.8600    0.8700
    0.8800    0.8900    0.9000    0.9100    0.9200    0.9300    0.9400    0.9500
    0.9600    0.9700    0.9800    0.9900    1.0000    1.0100    1.0200    1.0300
    1.0400    1.0500    1.0600    1.0700    1.0800    1.0900    1.1000    1.1100
    1.1200    1.1300    1.1400    1.1500    1.1600    1.1700    1.1800    1.1900
    1.2000    1.2100    1.2200    1.2300    1.2400    1.2500    1.2600    1.2700
    1.2800    1.2900    1.3000    1.3100    1.3200    1.3300    1.3400    1.3500
    1.3600    1.3700    1.3800    1.3900    1.4000    1.4100    1.4200    1.4300
    1.4400    1.4500    1.4600    1.4700    1.4800    1.4900    1.5000    1.5100
    1.5200    1.5300    1.5400    1.5500    1.5600    1.5700    1.5800    1.5900
    1.6000    1.6100    1.6200    1.6300    1.6400    1.6500    1.6600    1.6700
    1.6800    1.6900    1.7000    1.7100    1.7200    1.7300    1.7400    1.7500
    1.7600    1.7700    1.7800    1.7900    1.8000    1.8100    1.8200    1.8300
    1.8400    1.8500    1.8600    1.8700    1.8800    1.8900    1.9000    1.9100
    1.9200    1.9300    1.9400    1.9500    1.9600    1.9700    1.9800    1.9900
    2.0000    2.0100    2.0200    2.0300    2.0400    2.0500    2.0600    2.0700
    2.0800    2.0900    2.1000    2.1100    2.1200    2.1300    2.1400    2.1500
    2.1600    2.1700    2.1800    2.1900    2.2000    2.2100    2.2200    2.2300
    2.2400    2.2500    2.2600    2.2700    2.2800    2.2900    2.3000    2.3100
    2.3200    2.3300    2.3400    2.3500    2.3600    2.3700    2.3800    2.3900
    2.4000    2.4100    2.4200    2.4300    2.4400    2.4500    2.4600    2.4700
    2.4800    2.4900    2.5000    2.5100    2.5200    2.5300    2.5400    2.5500
    2.5600    2.5700    2.5800    2.5900    2.6000    2.6100    2.6200    2.6300
    2.6400    2.6500    2.6600    2.6700    2.6800    2.6900    2.7000    2.7100
    2.7200    2.7300    2.7400    2.7500    2.7600    2.7700    2.7800    2.7900
    2.8000    2.8100    2.8200    2.8300    2.8400    2.8500    2.8600    2.8700
    2.8800    2.8900    2.9000    2.9100    2.9200    2.9300    2.9400    2.9500
    2.9600    2.9700    2.9800    2.9900    3.0000    3.0100    3.0200    3.0300
    3.0400    3.0500    3.0600    3.0700    3.0800    3.0900    3.1000    3.1100
    3.1200    3.1300    3.1400    3.1500    3.1600    3.1700    3.1800    3.1900
    3.2000    3.2100    3.2200    3.2300    3.2400    3.2500    3.2600    3.2700
    3.2800    3.2900    3.3000    3.3100    3.3200    3.3300    3.3400    3.3500
    3.3600    3.3700    3.3800    3.3900    3.4000    3.4100    3.4200    3.4300
    3.4400    3.4500    3.4600    3.4700    3.4800    3.4900    3.5000    3.5100
    3.5200    3.5300    3.5400    3.5500    3.5600    3.5700    3.5800    3.5900
    3.6000    3.6100    3.6200    3.6300    3.6400    3.6500    3.6600    3.6700
    3.6800    3.6900    3.7000    3.7100    3.7200    3.7300    3.7400    3.7500
    3.7600    3.7700    3.7800    3.7900    3.8000    3.8100    3.8200    3.8300
    3.8400    3.8500    3.8600    3.8700    3.8800    3.8900    3.9000    3.9100
    3.9200    3.9300    3.9400    3.9500    3.9600    3.9700    3.9800    3.9900
    4.0000    4.0100    4.0200    4.0300    4.0400    4.0500    4.0600    4.0700
    4.0800    4.0900    4.1000    4.1100    4.1200    4.1300    4.1400    4.1500
    4.1600    4.1700    4.1800    4.1900    4.2000    4.2100    4.2200    4.2300
    4.2400    4.2500    4.2600    4.2700    4.2800    4.2900    4.3000    4.3100
    4.3200    4.3300    4.3400    4.3500    4.3600    4.3700    4.3800    4.3900
    4.4000    4.4100    4.4200    4.4300    4.4400    4.4500    4.4600    4.4700
    4.4800    4.4900    4.5000    4.5100    4.5200    4.5300    4.5400    4.5500
    4.5600    4.5700    4.5800    4.5900    4.6000    4.6100    4.6200    4.6300
    4.6400    4.6500    4.6600    4.6700    4.6800    4.6900    4.7000    4.7100
    4.7200    4.7300    4.7400    4.7500    4.7600    4.7700    4.7800    4.7900
    4.8000    4.8100    4.8200    4.8300    4.8400    4.8500    4.8600    4.8700
    4.8800    4.8900    4.9000    4.9100    4.9200    4.9300    4.9400    4.9500
    4.9600    4.9700    4.9800    4.9900    5.0000    5.0100    5.0200    5.0300
    5.0400    5.0500    5.0600    5.0700    5.0800    5.0900    5.1000    5.1100
    5.1200    5.1300    5.1400    5.1500    5.1600    5.1700    5.1800    5.1900
    5.2000    5.2100    5.2200    5.2300    5.2400    5.2500    5.2600    5.2700
    5.2800    5.2900    5.3000    5.3100    5.3200    5.3300    5.3400    5.3500
    5.3600    5.3700    5.3800    5.3900    5.4000    5.4100    5.4200    5.4300
    5.4400    5.4500    5.4600    5.4700    5.4800    5.4900    5.5000    5.5100
    5.5200    5.5300    5.5400    5.5500    5.5600    5.5700    5.5800    5.5900
    5.6000    5.6100    5.6200    5.6300    5.6400    5.6500    5.6600    5.6700
    5.6800    5.6900    5.7000    5.7100    5.7200    5.7300    5.7400    5.7500
    5.7600    5.7700    5.7800    5.7900    5.8000    5.8100    5.8200    5.8300
    5.8400    5.8500    5.8600    5.8700    5.8800    5.8900    5.9000    5.9100
    5.9200    5.9300    5.9400    5.9500    5.9600    5.9700    5.9800    5.9900
    6.0000    6.0100
   </PP_R>
   <PP_RAB type="real"  size=" 602" columns="8">
    0.0100    0.0100    0.0100    0.0100    0.0100    0.0100    0.0100    0.0100
    0.0100    0.0100    0.0100    0.0100    0.0100    0.0100    0.0100    0.0100
    0.0100    0.0100    0.0100    0.0100    0.0100    0.0100    0.0100    0.0100
    0.0100    0.0100    0.0100    0.0100    0.0100    0.0100    0.0100    0.0100
    0.0100    0.0100    0.0100    0.0100    0.0100    0.0100    0.0100    0.0100
    0.0100    0.0100    0.0100    0.0100    0.0100    0.0100    0.0100    0.0100
    0.0100    0.0100    0.0100    0.0100    0.0100    0.0100    0.0100    0.0100
    0.0100    0.0100    0.0100    0.0100    0.0100    0.0100    0.0100    0.0100
    0.0100    0.0100    0.0100    0.0100    0.0100    0.0100    0.0100    0.0100
    0.0100    0.0100    0.0100    0.0100    0.0100    0.0100    0.0100    0.0100
    0.0100    0.0100    0.0100    0.0100    0.0100    0.0100    0.0100    0.0100
    0.0100    0.0100    0.0100    0.0100    0.0100    0.0100    0.0100    0.0100
    0.0100    0.0100    0.0100    0.0100    0.0100    0.0100    0.0100    0.0100
    0.0100    0.0100    0.0100    0.0100    0.0100    0.0100    0.0100    0.0100
    0.0100    0.0100    0.0100    0.0100    0.0100    0.0100    0.0100    0.0100
    0.0100    0.0100    0.0100    0.0100    0.0100    0.0100    0.0100    0.0100
    0.0100    0.0100    0.0100    0.0100    0.0100    0.0100    0.0100    0.0100
    0.0100    0.0100    0.0100    0.0100    0.0100    0.0100    0.0100    0.0100
    0.0100    0.0100    0.0100    0.0100    0.0100    0.0100    0.0100    0.0100
    0.0100    0.0100    0.0100    0.0100    0.0100    0.0100    0.0100    0.0100
    0.0100    0.0100    0.0100    0.0100    0.0100    0.0100    0.0100    0.0100
    0.0100    0.0100    0.0100    0.0100    0.0100    0.0100    0.0100    0.0100
    0.0100    0.0100    0.0100    0.0100    0.0100    0.0100    0.0100    0.0100
    0.0100    0.0100    0.0100    0.0100    0.0100    0.0100    0.0100    0.0100
    0.0100    0.0100    0.0100    0.0100    0.0100    0.0100    0.0100    0.0100
    0.0100    0.0100    0.0100    0.0100    0.0100    0.0100    0.0100    0.0100
    0.0100    0.0100    0.0100    0.0100    0.0100    0.0100    0.0100    0.0100
    0.0100    0.0100    0.0100    0.0100    0.0100    0.0100    0.0100    0.0100
    0.0100    0.0100    0.0100    0.0100    0.0100    0.0100    0.0100    0.0100
    0.0100    0.0100    0.0100    0.0100    0.0100    0.0100    0.0100    0.0100
    0.0100    0.0100    0.0100    0.0100    0.0100    0.0100    0.0100    0.0100
    0.0100    0.0100    0.0100    0.0100    0.0100    0.0100    0.0100    0.0100
    0.0100    0.0100    0.0100    0.0100    0.0100    0.0100    0.0100    0.0100
    0.0100    0.0100    0.0100    0.0100    0.0100    0.0100    0.0100    0.0100
    0.0100    0.0100    0.0100    0.0100    0.0100    0.0100    0.0100    0.0100
    0.0100    0.0100    0.0100    0.0100    0.0100    0.0100    0.0100    0.0100
    0.0100    0.0100    0.0100    0.0100    0.0100    0.0100    0.0100    0.0100
    0.0100    0.0100    0.0100    0.0100    0.0100    0.0100    0.0100    0.0100
    0.0100    0.0100    0.0100    0.0100    0.0100    0.0100    0.0100    0.0100
    0.0100    0.0100    0.0100    0.0100    0.0100    0.0100    0.0100    0.0100
    0.0100    0.0100    0.0100    0.0100    0.0100    0.0100    0.0100    0.0100
    0.0100    0.0100    0.0100    0.0100    0.0100    0.0100    0.0100    0.0100
    0.0100    0.0100    0.0100    0.0100    0.0100    0.0100    0.0100    0.0100
    0.0100    0.0100    0.0100    0.0100    0.0100    0.0100    0.0100    0.0100
    0.0100    0.0100    0.0100    0.0100    0.0100    0.0100    0.0100    0.0100
    0.0100    0.0100    0.0100    0.0100    0.0100    0.0100    0.0100    0.0100
    0.0100    0.0100    0.0100    0.0100    0.0100    0.0100    0.0100    0.0100
    0.0100    0.0100    0.0100    0.0100    0.0100    0.0100    0.0100    0.0100
    0.0100    0.0100    0.0100    0.0100    0.0100    0.0100    0.0100    0.0100
    0.0100    0.0100    0.0100    0.0100    0.0100    0.0100    0.0100    0.0100
    0.0100    0.0100    0.0100    0.0100    0.0100    0.0100    0.0100    0.0100
    0.0100    0.0100    0.0100    0.0100    0.0100    0.0100    0.0100    0.0100
    0.0100    0.0100    0.0100    0.0100    0.0100    0.0100    0.0100    0.0100
    0.0100    0.0100    0.0100    0.0100    0.0100    0.0100    0.0100    0.0100
    0.0100    0.0100    0.0100    0.0100    0.0100    0.0100    0.0100    0.0100
    0.0100    0.0100    0.0100    0.0100    0.0100    0.0100    0.0100    0.0100
    0.0100    0.0100    0.0100    0.0100    0.0100    0.0100    0.0100    0.0100
    0.0100    0.0100    0.0100    0.0100    0.0100    0.0100    0.0100    0.0100
    0.0100    0.0100    0.0100    0.0100    0.0100    0.0100    0.0100    0.0100
    0.0100    0.0100    0.0100    0.0100    0.0100    0.0100    0.0100    0.0100
    0.0100    0.0100    0.0100    0.0100    0.0100    0.0100    0.0100    0.0100
    0.0100    0.0100    0.0100    0.0100    0.0100    0.0100    0.0100    0.0100
    0.0100    0.0100    0.0100    0.0100    0.0100    0.0100    0.0100    0.0100
    0.0100    0.0100    0.0100    0.0100    0.0100    0.0100    0.0100    0.0100
    0.0100    0.0100    0.0100    0.0100    0.0100    0.0100    0.0100    0.0100
    0.0100    0.0100    0.0100    0.0100    0.0100    0.0100    0.0100    0.0100
    0.0100    0.0100    0.0100    0.0100    0.0100    0.0100    0.0100    0.0100
    0.0100    0.0100    0.0100    0.0100    0.0100    0.0100    0.0100    0.0100
    0.0100    0.0100    0.0100    0.0100    0.0100    0.0100    0.0100    0.0100
    0.0100    0.0100    0.0100    0.0100    0.0100    0.0100    0.0100    0.0100
    0.0100    0.0100    0.0100    0.0100    0.0100    0.0100    0.0100    0.0100
    0.0100    0.0100    0.0100    0.0100    0.0100    0.0100    0.0100    0.0100
    0.0100    0.0100    0.0100    0.0100    0.0100    0.0100    0.0100    0.0100
    0.0100    0.0100    0.0100    0.0100    0.0100    0.0100    0.0100    0.0100
    0.0100    0.0100    0.0100    0.0100    0.0100    0.0100    0.0100    0.0100
    0.0100    0.0100
   </PP_RAB>
 </PP_MESH>
  <PP_LOCAL type="real"  size=" 602" columns="4">
   -6.1853516740E+01   -3.7569618827E+01   -2.8901307549E+01   -2.8444436728E+01
   -2.8794860191E+01   -2.8868891386E+01   -2.8871918934E+01   -2.8855904263E+01
   -2.8831202655E+01   -2.8800273597E+01   -2.8764161572E+01   -2.8723695121E+01
   -2.8679671373E+01   -2.8632862012E+01   -2.8584006977E+01   -2.8533819965E+01
   -2.8483001625E+01   -2.8432253989E+01   -2.8382291798E+01   -2.8333848239E+01
   -2.8287673693E+01   -2.8244526555E+01   -2.8205155618E+01   -2.8170273822E+01
   -2.8140523738E+01   -2.8116436144E+01   -2.8098383393E+01   -2.8086531584E+01
   -2.8080795163E+01   -2.8080799389E+01   -2.8085856508E+01   -2.8094960225E+01
   -2.8106803217E+01   -2.8119819551E+01   -2.8132250713E+01   -2.8142232870E+01
   -2.8147898188E+01   -2.8147481546E+01   -2.8139424550E+01   -2.8122464454E+01
   -2.8095702587E+01   -2.8058645379E+01   -2.8011215188E+01   -2.7953731670E+01
   -2.7886865566E+01   -2.7811572831E+01   -2.7729014140E+01   -2.7640469305E+01
   -2.7547254259E+01   -2.7450647909E+01   -2.7351834008E+01   -2.7251857667E+01
   -2.7151604226E+01   -2.7051791955E+01   -2.6952974277E+01   -2.6855560162E+01
   -2.6759828635E+01   -2.6665956119E+01   -2.6574034502E+01   -2.6484094361E+01
   -2.6396119090E+01   -2.6310061102E+01   -2.6225850675E+01   -2.6143404561E+01
   -2.6062631114E+01   -2.5983433235E+01   -2.5905710330E+01   -2.5829358657E+01
   -2.5754270707E+01   -2.5680334051E+01   -2.5607429788E+01   -2.5535430745E+01
   -2.5464199718E+01   -2.5393587410E+01   -2.5323431599E+01   -2.5253556315E+01
   -2.5183771869E+01   -2.5113875767E+01   -2.5043654607E+01   -2.4972886993E+01
   -2.4901347414E+01   -2.4828811047E+01   -2.4755059288E+01   -2.4679885541E+01
   -2.4603101119E+01   -2.4524540808E+01   -2.4444067737E+01   -2.4361577226E+01
   -2.4276999344E+01   -2.4190299828E+01   -2.4101480088E+01   -2.4010575558E+01
   -2.3917652235E+01   -2.3822802867E+01   -2.3726142299E+01   -2.3627802465E+01
   -2.3527927355E+01   -2.3426668211E+01   -2.3324179170E+01   -2.3220613703E+01
   -2.3116121126E+01   -2.3010843998E+01   -2.2904916687E+01   -2.2798464193E+01
   -2.2691601570E+01   -2.2584434395E+01   -2.2477056989E+01   -2.2369554556E+01
   -2.2262003636E+01   -2.2154472838E+01   -2.2047023783E+01   -2.1939710451E+01
   -2.1832581868E+01   -2.1725682212E+01   -2.1619051756E+01   -2.1512726085E+01
   -2.1406738233E+01   -2.1301118668E+01   -2.1195895383E+01   -2.1091093903E+01
   -2.0986738147E+01   -2.0882850608E+01   -2.0779451425E+01   -2.0676559344E+01
   -2.0574191839E+01   -2.0472364188E+01   -2.0371089818E+01   -2.0270380883E+01
   -2.0170246961E+01   -2.0070695276E+01   -1.9971731760E+01   -1.9873358843E+01
   -1.9775576428E+01   -1.9678383207E+01   -1.9581772903E+01   -1.9485737684E+01
   -1.9390267286E+01   -1.9295346849E+01   -1.9200960750E+01   -1.9107089224E+01
   -1.9013710343E+01   -1.8920800941E+01   -1.8828334193E+01   -1.8736283365E+01
   -1.8644619510E+01   -1.8553313799E+01   -1.8462336679E+01   -1.8371660071E+01
   -1.8281255372E+01   -1.8191097685E+01   -1.8101162561E+01   -1.8011429317E+01
   -1.7921880814E+01   -1.7832501789E+01   -1.7743284752E+01   -1.7654220944E+01
   -1.7565313602E+01   -1.7476561950E+01   -1.7387979013E+01   -1.7299574036E+01
   -1.7211367762E+01   -1.7123379278E+01   -1.7035636148E+01   -1.6948165698E+01
   -1.6861001012E+01   -1.6774175389E+01   -1.6687725688E+01   -1.6601688507E+01
   -1.6516102257E+01   -1.6431003958E+01   -1.6346430820E+01   -1.6262417411E+01
   -1.6178996400E+01   -1.6096197257E+01   -1.6014044238E+01   -1.5932559520E+01
   -1.5851754843E+01   -1.5771643523E+01   -1.5692221226E+01   -1.5613491377E+01
   -1.5535431930E+01   -1.5458035493E+01   -1.5381265257E+01   -1.5305098656E+01
   -1.5229492851E+01   -1.5154410006E+01   -1.5079806739E+01   -1.5005637212E+01
   -1.4931859135E+01   -1.4858430974E+01   -1.4785310777E+01   -1.4712473884E+01
   -1.4639879218E+01   -1.4567521550E+01   -1.4495376652E+01   -1.4423445656E+01
   -1.4351730184E+01   -1.4280234272E+01   -1.4208982232E+01   -1.4137983477E+01
   -1.4067272039E+01   -1.3996872192E+01   -1.3926814012E+01   -1.3857129662E+01
   -1.3787849945E+01   -1.3719003797E+01   -1.3650624049E+01   -1.3582734370E+01
   -1.3515361244E+01   -1.3448529432E+01   -1.3382253520E+01   -1.3316557612E+01
   -1.3251450116E+01   -1.3186943844E+01   -1.3123050509E+01   -1.3059771403E+01
   -1.2997115916E+01   -1.2935082937E+01   -1.2873672467E+01   -1.2812886462E+01
   -1.2752718579E+01   -1.2693167129E+01   -1.2634226934E+01   -1.2575890966E+01
   -1.2518154929E+01   -1.2461010097E+01   -1.2404449204E+01   -1.2348465065E+01
   -1.2293048625E+01   -1.2238191841E+01   -1.2183886119E+01   -1.2130122489E+01
   -1.2076892317E+01   -1.2024186689E+01   -1.1971996716E+01   -1.1920313454E+01
   -1.1869128225E+01   -1.1818432192E+01   -1.1768216488E+01   -1.1718472774E+01
   -1.1669192335E+01   -1.1620366650E+01   -1.1571987755E+01   -1.1524047142E+01
   -1.1476536802E+01   -1.1429449188E+01   -1.1382776090E+01   -1.1336510101E+01
   -1.1290644152E+01   -1.1245170415E+01   -1.1200082126E+01   -1.1155372760E+01
   -1.1111034941E+01   -1.1067062564E+01   -1.1023449725E+01   -1.0980189578E+01
   -1.0937276671E+01   -1.0894705831E+01   -1.0852470908E+01   -1.0810567006E+01
   -1.0768989708E+01   -1.0727733680E+01   -1.0686794436E+01   -1.0646168222E+01
   -1.0605850465E+01   -1.0565836979E+01   -1.0526124637E+01   -1.0486709616E+01
   -1.0447587997E+01   -1.0408757042E+01   -1.0370213496E+01   -1.0331953837E+01
   -1.0293975297E+01   -1.0256274818E+01   -1.0218849197E+01   -1.0181695570E+01
   -1.0144811034E+01   -1.0108192510E+01   -1.0071837132E+01   -1.0035742237E+01
   -9.9999049853E+00   -9.9643224700E+00   -9.9289922053E+00   -9.8939115249E+00
   -9.8590775780E+00   -9.8244879454E+00   -9.7901401226E+00   -9.7560314682E+00
   -9.7221594620E+00   -9.6885218044E+00   -9.6551160701E+00   -9.6219396281E+00
   -9.5889903689E+00   -9.5562659801E+00   -9.5237640378E+00   -9.4914822905E+00
   -9.4594186361E+00   -9.4275708686E+00   -9.3959365855E+00   -9.3645138774E+00
   -9.3333006416E+00   -9.3022946855E+00   -9.2714939199E+00   -9.2408964543E+00
   -9.2105002828E+00   -9.1803032391E+00   -9.1503035173E+00   -9.1204992401E+00
   -9.0908884596E+00   -9.0614691563E+00   -9.0322396618E+00   -9.0031981519E+00
   -8.9743427101E+00   -8.9456715451E+00   -8.9171830165E+00   -8.8888753847E+00
   -8.8607467740E+00   -8.8327955913E+00   -8.8050202266E+00   -8.7774190212E+00
   -8.7499901487E+00   -8.7227321834E+00   -8.6956435512E+00   -8.6687226465E+00
   -8.6419677707E+00   -8.6153775651E+00   -8.5889505214E+00   -8.5626850862E+00
   -8.5365796867E+00   -8.5106330118E+00   -8.4848436234E+00   -8.4592100255E+00
   -8.4337307479E+00   -8.4084045309E+00   -8.3832300032E+00   -8.3582057320E+00
   -8.3333303262E+00   -8.3086025824E+00   -8.2840211932E+00   -8.2595847934E+00
   -8.2352920496E+00   -8.2111418195E+00   -8.1871328563E+00   -8.1632638672E+00
   -8.1395335564E+00   -8.1159408465E+00   -8.0924845491E+00   -8.0691634475E+00
   -8.0459762654E+00   -8.0229219939E+00   -7.9999994998E+00   -7.9772076474E+00
   -7.9545451625E+00   -7.9320111077E+00   -7.9096044023E+00   -7.8873239657E+00
   -7.8651686007E+00   -7.8431373533E+00   -7.8212292228E+00   -7.7994431791E+00
   -7.7777781135E+00   -7.7562330324E+00   -7.7348070203E+00   -7.7134990947E+00
   -7.6923082410E+00   -7.6712334116E+00   -7.6502737772E+00   -7.6294284012E+00
   -7.6086963470E+00   -7.5880765617E+00   -7.5675682425E+00   -7.5471705158E+00
   -7.5268824886E+00   -7.5067032078E+00   -7.4866317834E+00   -7.4666674390E+00
   -7.4468093231E+00   -7.4270565845E+00   -7.4074082472E+00   -7.3878636187E+00
   -7.3684218907E+00   -7.3490822514E+00   -7.3298438312E+00   -7.3107058218E+00
   -7.2916675201E+00   -7.2727281521E+00   -7.2538869439E+00   -7.2351430145E+00
   -7.2164957112E+00   -7.1979443126E+00   -7.1794880810E+00   -7.1611262491E+00
   -7.1428580235E+00   -7.1246827930E+00   -7.1065998542E+00   -7.0886085035E+00
   -7.0707079716E+00   -7.0528975838E+00   -7.0351767237E+00   -7.0175447205E+00
   -7.0000009035E+00   -6.9825445093E+00   -6.9651749608E+00   -6.9478916421E+00
   -6.9306939136E+00   -6.9135811358E+00   -6.8965525581E+00   -6.8796076813E+00
   -6.8627458957E+00   -6.8459665917E+00   -6.8292691438E+00   -6.8126528673E+00
   -6.7961172751E+00   -6.7796617858E+00   -6.7632858182E+00   -6.7469887666E+00
   -6.7307699958E+00   -6.7146290353E+00   -6.6985653310E+00   -6.6825783285E+00
   -6.6666674475E+00   -6.6508320862E+00   -6.6350717958E+00   -6.6193860478E+00
   -6.6037743139E+00   -6.5882360440E+00   -6.5727706547E+00   -6.5573777234E+00
   -6.5420567465E+00   -6.5268072202E+00   -6.5116286295E+00   -6.4965203952E+00
   -6.4814821257E+00   -6.4665133408E+00   -6.4516135601E+00   -6.4367823032E+00
   -6.4220189976E+00   -6.4073232710E+00   -6.3926946707E+00   -6.3781327386E+00
   -6.3636370169E+00   -6.3492069773E+00   -6.3348422210E+00   -6.3205423376E+00
   -6.3063068908E+00   -6.2921354438E+00   -6.2780275176E+00   -6.2639826743E+00
   -6.2500005502E+00   -6.2360807290E+00   -6.2222227943E+00   -6.2084263207E+00
   -6.1946908211E+00   -6.1810159803E+00   -6.1674014014E+00   -6.1538466877E+00
   -6.1403514421E+00   -6.1269152060E+00   -6.1135376285E+00   -6.1002183595E+00
   -6.0869570207E+00   -6.0737532337E+00   -6.0606066011E+00   -6.0475166984E+00
   -6.0344832334E+00   -6.0215058455E+00   -6.0085841738E+00   -5.9957178576E+00
   -5.9829064785E+00   -5.9701497160E+00   -5.9574472546E+00   -5.9447987503E+00
   -5.9322038592E+00   -5.9196622320E+00   -5.9071734536E+00   -5.8947372734E+00
   -5.8823533634E+00   -5.8700213958E+00   -5.8577410427E+00   -5.8455119439E+00
   -5.8333337593E+00   -5.8212062263E+00   -5.8091290324E+00   -5.7971018648E+00
   -5.7851244110E+00   -5.7731963066E+00   -5.7613172713E+00   -5.7494870354E+00
   -5.7377053010E+00   -5.7259717701E+00   -5.7142861446E+00   -5.7026480616E+00
   -5.6910572860E+00   -5.6795135468E+00   -5.6680165597E+00   -5.6565660406E+00
   -5.6451617054E+00   -5.6338031982E+00   -5.6224903149E+00   -5.6112227886E+00
   -5.6000003481E+00   -5.5888227228E+00   -5.5776896414E+00   -5.5666007599E+00
   -5.5555558928E+00   -5.5445547820E+00   -5.5335971691E+00   -5.5226827958E+00
   -5.5118114039E+00   -5.5009826649E+00   -5.4901964002E+00   -5.4794523654E+00
   -5.4687503143E+00   -5.4580900005E+00   -5.4474711778E+00   -5.4368935380E+00
   -5.4263568978E+00   -5.4158610311E+00   -5.4054057032E+00   -5.3949906793E+00
   -5.3846157246E+00   -5.3742805551E+00   -5.3639849723E+00   -5.3537287727E+00
   -5.3435117325E+00   -5.3333336279E+00   -5.3231942349E+00   -5.3130932979E+00
   -5.3030305932E+00   -5.2930059436E+00   -5.2830191358E+00   -5.2730699562E+00
   -5.2631581915E+00   -5.2532836184E+00   -5.2434459786E+00   -5.2336451245E+00
   -5.2238808527E+00   -5.2141529597E+00   -5.2044612420E+00   -5.1948054961E+00
   -5.1851854700E+00   -5.1756009996E+00   -5.1660519069E+00   -5.1565379981E+00
   -5.1470590790E+00   -5.1376149557E+00   -5.1282054162E+00   -5.1188302416E+00
   -5.1094892921E+00   -5.1001823829E+00   -5.0909093288E+00   -5.0816699451E+00
   -5.0724640466E+00   -5.0632914033E+00   -5.0541518649E+00   -5.0450452717E+00
   -5.0359714472E+00   -5.0269302152E+00   -5.0179213994E+00   -5.0089448169E+00
   -5.0000002451E+00   -4.9910875693E+00   -4.9822066213E+00   -4.9733572331E+00
   -4.9645392364E+00   -4.9557524633E+00   -4.9469967218E+00   -4.9382718351E+00
   -4.9295776782E+00   -4.9209140909E+00   -4.9122809128E+00   -4.9036779838E+00
   -4.8951051434E+00   -4.8865621962E+00   -4.8780489990E+00   -4.8695654214E+00
   -4.8611113107E+00   -4.8526865140E+00   -4.8442908785E+00   -4.8359242513E+00
   -4.8275864380E+00   -4.8192773180E+00   -4.8109967601E+00   -4.8027446186E+00
   -4.7945207478E+00   -4.7863250021E+00   -4.7781572356E+00   -4.7700172594E+00
   -4.7619049649E+00   -4.7538202245E+00   -4.7457628994E+00   -4.7377328506E+00
   -4.7297299393E+00   -4.7217540265E+00   -4.7138049328E+00   -4.7058825514E+00
   -4.6979867631E+00   -4.6901174353E+00   -4.6822744356E+00   -4.6744576316E+00
   -4.6666668907E+00   -4.6589020472E+00
  </PP_LOCAL>
 <PP_NONLOCAL>
   <PP_BETA.1
       type="real"
       size=" 602"
       columns="4"
       index="1"
       angular_momentum="0"
       cutoff_radius_index=" 270"
       cutoff_radius="    2.6900000000E+00" >
    0.0000000000E+00    3.1132959704E-02    6.2176349197E-02    9.3040826698E-02
    1.2363750666E-01    1.5387818634E-01    1.8367557047E-01    2.1294349348E-01
    2.4159713865E-01    2.6955325350E-01    2.9673036100E-01    3.2304896588E-01
    3.4843175555E-01    3.7280379505E-01    3.9609271555E-01    4.1822889583E-01
    4.3914563629E-01    4.5877932499E-01    4.7706959535E-01    4.9395947491E-01
    5.0939552515E-01    5.2332797127E-01    5.3571082251E-01    5.4650198196E-01
    5.5566334605E-01    5.6316089271E-01    5.6896475966E-01    5.7304931009E-01
    5.7539318797E-01    5.7597936177E-01    5.7479515617E-01    5.7183227264E-01
    5.6708679799E-01    5.6055920119E-01    5.5225431912E-01    5.4218133033E-01
    5.3035371732E-01    5.1678921775E-01    5.0150976445E-01    4.8454141436E-01
    4.6591426698E-01    4.4566237237E-01    4.2382362891E-01    4.0043967089E-01
    3.7555574780E-01    3.4922059286E-01    3.2148628408E-01    2.9240809642E-01
    2.6204434637E-01    2.3045623063E-01    1.9770765936E-01    1.6386506624E-01
    1.2899724297E-01    9.3175154515E-02    5.6471716584E-02    1.8961651906E-02
   -1.9278770733E-02   -5.8171876094E-02   -9.7638852175E-02   -1.3759988041E-01
   -1.7797444157E-01   -2.1868140656E-01   -2.5963936202E-01   -3.0076674939E-01
   -3.4198203566E-01   -3.8320405222E-01   -4.2435207399E-01   -4.6534602609E-01