<UPF version="2.0.1">
  <PP_INFO>

 Hf_ONCV_PBE_FR-1.0.upf

 This pseudopotential file has been produced using the code
 ONCVPSP  (Optimized Norm-Conservinng Vanderbilt PSeudopotential)
 fully-relativistic version 2.1.1, 03/26/2014 by D. R. Hamann
 The code is available through a link at URL www.mat-simresearch.com.
 Documentation with the package provides a full description of the
 input data below.

 While it is not required under the terms of the GNU GPL, it is
 suggested that you cite D. R. Hamann, Phys. Rev. B 88, 085117 (2013)
 in any publication using these pseudopotentials.

 -----

 This pseudopotential was produced with the SG15 1.0 and/or 1.1
 parameter sets, the Schlipf-Gygi norm-conserving pseudopotential
 library. For details of the construction and testing of the
 pseudopotential please refer to:

 M. Schlipf, F. Gygi, Comp. Phys. Comm. 196, 36 (2015)
 http://dx.doi.org/10.1016/j.cpc.2015.05.011

 The above authors kindly ask that you include this reference in all
 publications associated to this pseudopotential.

 Please note this fully-relativistic version does not employ the
 above self-consistent procedure at the fully-relativistic level.

 -----

 This pseudopotential was produced by Peter Scherpelz for the purpose
 of performing GW calculations with spin-orbit-coupling. Please see
 the publication:

 P. Scherpelz, M. Govoni, I. Hamada, G. Galli; J. Chem. Theory Comput. (2016)
 http://dx.doi.org/10.1021/acs.jctc.6b00114

 If you use these pseudopotentials in your work, we also kindly ask
 that you cite the above publication.

 -----

 This work is licensed under the Creative Commons Attribution-ShareAlike 
 4.0 International License. To view a copy of this license, visit 
 http://creativecommons.org/licenses/by-sa/4.0/ or send a letter to 
 Creative Commons, PO Box 1866, Mountain View, CA 94042, USA.

 The SG15 library is Copyright 2015 The Regents of the University of
 California.  Further modifications of these files are Copyright 2016
 Peter Scherpelz.

    <PP_INPUTFILE>
# ATOM AND REFERENCE CONFIGURATION
# atsym  z    nc    nv    iexc   psfile
  Hf 72.00     9     5     4      upf
#
#   n    l    f        energy (Ha)
    1    0    2.00
    2    0    2.00
    2    1    6.00
    3    0    2.00
    3    1    6.00
    3    2   10.00
    4    0    2.00
    4    1    6.00
    4    2   10.00
    4    3   14.00
    5    0    2.00
    5    1    6.00
    6    0    2.00
    5    2    2.00
#
# PSEUDOPOTENTIAL AND OPTIMIZATION
# lmax
    3
#
#   l,   rc,     ep,   ncon, nbas, qcut
    0    1.91   -2.46    5    8    8.72
    1    2.13   -1.23    5    8    7.89
    2    2.05   -0.09    5    8    7.52
    3    3.01   -0.59    5    8    7.33
#
# LOCAL POTENTIAL
# lloc, lpopt,  rc(5),   dvloc0
    4    5      1.72       0.00
#
# VANDERBILT-KLEINMAN-BYLANDER PROJECTORs
# l, nproj, debl
    0    2    2.2694
    1    2    1.1790
    2    2    1.0074
    3    2    1.3692
#
# MODEL CORE CHARGE
# icmod, fcfact
    0    0.00
#
# LOG DERIVATIVE ANALYSIS
# epsh1, epsh2, depsh
   -5.00    3.00    0.02
#
# OUTPUT GRID
# rlmax, drl
    6.00    0.01
#
# TEST CONFIGURATIONS
# ncnf
    0
# nvcnf
#   n    l    f
    </PP_INPUTFILE>
  </PP_INFO>
  <!--                               -->
  <!-- END OF HUMAN READABLE SECTION -->
  <!--                               -->
    <PP_HEADER
       generated="Generated using ONCVPSP code by D. R. Hamann"
       author="anonymous"
       date="150703"
       comment=""
       element="Hf"
       pseudo_type="NC"
       relativistic="full"
       is_ultrasoft="F"
       is_paw="F"
       is_coulomb="F"
       has_so="T"
       has_wfc="F"
       has_gipaw="F"
       core_correction="F"
       functional="PBE"
       z_valence="   26.00"
       total_psenergy="  -2.23511766374E+02"
       rho_cutoff="   6.01000000000E+00"
       l_max="3"
       l_local="-1"
       mesh_size="   602"
       number_of_wfc="0"
       number_of_proj="14"/>
 <PP_MESH>
   <PP_R type="real"  size=" 602" columns="8">
    0.0000    0.0100    0.0200    0.0300    0.0400    0.0500    0.0600    0.0700
    0.0800    0.0900    0.1000    0.1100    0.1200    0.1300    0.1400    0.1500
    0.1600    0.1700    0.1800    0.1900    0.2000    0.2100    0.2200    0.2300
    0.2400    0.2500    0.2600    0.2700    0.2800    0.2900    0.3000    0.3100
    0.3200    0.3300    0.3400    0.3500    0.3600    0.3700    0.3800    0.3900
    0.4000    0.4100    0.4200    0.4300    0.4400    0.4500    0.4600    0.4700
    0.4800    0.4900    0.5000    0.5100    0.5200    0.5300    0.5400    0.5500
    0.5600    0.5700    0.5800    0.5900    0.6000    0.6100    0.6200    0.6300
    0.6400    0.6500    0.6600    0.6700    0.6800    0.6900    0.7000    0.7100
    0.7200    0.7300    0.7400    0.7500    0.7600    0.7700    0.7800    0.7900
    0.8000    0.8100    0.8200    0.8300    0.8400    0.8500    0.8600    0.8700
    0.8800    0.8900    0.9000    0.9100    0.9200    0.9300    0.9400    0.9500
    0.9600    0.9700    0.9800    0.9900    1.0000    1.0100    1.0200    1.0300
    1.0400    1.0500    1.0600    1.0700    1.0800    1.0900    1.1000    1.1100
    1.1200    1.1300    1.1400    1.1500    1.1600    1.1700    1.1800    1.1900
    1.2000    1.2100    1.2200    1.2300    1.2400    1.2500    1.2600    1.2700
    1.2800    1.2900    1.3000    1.3100    1.3200    1.3300    1.3400    1.3500
    1.3600    1.3700    1.3800    1.3900    1.4000    1.4100    1.4200    1.4300
    1.4400    1.4500    1.4600    1.4700    1.4800    1.4900    1.5000    1.5100
    1.5200    1.5300    1.5400    1.5500    1.5600    1.5700    1.5800    1.5900
    1.6000    1.6100    1.6200    1.6300    1.6400    1.6500    1.6600    1.6700
    1.6800    1.6900    1.7000    1.7100    1.7200    1.7300    1.7400    1.7500
    1.7600    1.7700    1.7800    1.7900    1.8000    1.8100    1.8200    1.8300
    1.8400    1.8500    1.8600    1.8700    1.8800    1.8900    1.9000    1.9100
    1.9200    1.9300    1.9400    1.9500    1.9600    1.9700    1.9800    1.9900
    2.0000    2.0100    2.0200    2.0300    2.0400    2.0500    2.0600    2.0700
    2.0800    2.0900    2.1000    2.1100    2.1200    2.1300    2.1400    2.1500
    2.1600    2.1700    2.1800    2.1900    2.2000    2.2100    2.2200    2.2300
    2.2400    2.2500    2.2600    2.2700    2.2800    2.2900    2.3000    2.3100
    2.3200    2.3300    2.3400    2.3500    2.3600    2.3700    2.3800    2.3900
    2.4000    2.4100    2.4200    2.4300    2.4400    2.4500    2.4600    2.4700
    2.4800    2.4900    2.5000    2.5100    2.5200    2.5300    2.5400    2.5500
    2.5600    2.5700    2.5800    2.5900    2.6000    2.6100    2.6200    2.6300
    2.6400    2.6500    2.6600    2.6700    2.6800    2.6900    2.7000    2.7100
    2.7200    2.7300    2.7400    2.7500    2.7600    2.7700    2.7800    2.7900
    2.8000    2.8100    2.8200    2.8300    2.8400    2.8500    2.8600    2.8700
    2.8800    2.8900    2.9000    2.9100    2.9200    2.9300    2.9400    2.9500
    2.9600    2.9700    2.9800    2.9900    3.0000    3.0100    3.0200    3.0300
    3.0400    3.0500    3.0600    3.0700    3.0800    3.0900    3.1000    3.1100
    3.1200    3.1300    3.1400    3.1500    3.1600    3.1700    3.1800    3.1900
    3.2000    3.2100    3.2200    3.2300    3.2400    3.2500    3.2600    3.2700
    3.2800    3.2900    3.3000    3.3100    3.3200    3.3300    3.3400    3.3500
    3.3600    3.3700    3.3800    3.3900    3.4000    3.4100    3.4200    3.4300
    3.4400    3.4500    3.4600    3.4700    3.4800    3.4900    3.5000    3.5100
    3.5200    3.5300    3.5400    3.5500    3.5600    3.5700    3.5800    3.5900
    3.6000    3.6100    3.6200    3.6300    3.6400    3.6500    3.6600    3.6700
    3.6800    3.6900    3.7000    3.7100    3.7200    3.7300    3.7400    3.7500
    3.7600    3.7700    3.7800    3.7900    3.8000    3.8100    3.8200    3.8300
    3.8400    3.8500    3.8600    3.8700    3.8800    3.8900    3.9000    3.9100
    3.9200    3.9300    3.9400    3.9500    3.9600    3.9700    3.9800    3.9900
    4.0000    4.0100    4.0200    4.0300    4.0400    4.0500    4.0600    4.0700
    4.0800    4.0900    4.1000    4.1100    4.1200    4.1300    4.1400    4.1500
    4.1600    4.1700    4.1800    4.1900    4.2000    4.2100    4.2200    4.2300
    4.2400    4.2500    4.2600    4.2700    4.2800    4.2900    4.3000    4.3100
    4.3200    4.3300    4.3400    4.3500    4.3600    4.3700    4.3800    4.3900
    4.4000    4.4100    4.4200    4.4300    4.4400    4.4500    4.4600    4.4700
    4.4800    4.4900    4.5000    4.5100    4.5200    4.5300    4.5400    4.5500
    4.5600    4.5700    4.5800    4.5900    4.6000    4.6100    4.6200    4.6300
    4.6400    4.6500    4.6600    4.6700    4.6800    4.6900    4.7000    4.7100
    4.7200    4.7300    4.7400    4.7500    4.7600    4.7700    4.7800    4.7900
    4.8000    4.8100    4.8200    4.8300    4.8400    4.8500    4.8600    4.8700
    4.8800    4.8900    4.9000    4.9100    4.9200    4.9300    4.9400    4.9500
    4.9600    4.9700    4.9800    4.9900    5.0000    5.0100    5.0200    5.0300
    5.0400    5.0500    5.0600    5.0700    5.0800    5.0900    5.1000    5.1100
    5.1200    5.1300    5.1400    5.1500    5.1600    5.1700    5.1800    5.1900
    5.2000    5.2100    5.2200    5.2300    5.2400    5.2500    5.2600    5.2700
    5.2800    5.2900    5.3000    5.3100    5.3200    5.3300    5.3400    5.3500
    5.3600    5.3700    5.3800    5.3900    5.4000    5.4100    5.4200    5.4300
    5.4400    5.4500    5.4600    5.4700    5.4800    5.4900    5.5000    5.5100
    5.5200    5.5300    5.5400    5.5500    5.5600    5.5700    5.5800    5.5900
    5.6000    5.6100    5.6200    5.6300    5.6400    5.6500    5.6600    5.6700
    5.6800    5.6900    5.7000    5.7100    5.7200    5.7300    5.7400    5.7500
    5.7600    5.7700    5.7800    5.7900    5.8000    5.8100    5.8200    5.8300
    5.8400    5.8500    5.8600    5.8700    5.8800    5.8900    5.9000    5.9100
    5.9200    5.9300    5.9400    5.9500    5.9600    5.9700    5.9800    5.9900
    6.0000    6.0100
   </PP_R>
   <PP_RAB type="real"  size=" 602" columns="8">
    0.0100    0.0100    0.0100    0.0100    0.0100    0.0100    0.0100    0.0100
    0.0100    0.0100    0.0100    0.0100    0.0100    0.0100    0.0100    0.0100
    0.0100    0.0100    0.0100    0.0100    0.0100    0.0100    0.0100    0.0100
    0.0100    0.0100    0.0100    0.0100    0.0100    0.0100    0.0100    0.0100
    0.0100    0.0100    0.0100    0.0100    0.0100    0.0100    0.0100    0.0100
    0.0100    0.0100    0.0100    0.0100    0.0100    0.0100    0.0100    0.0100
    0.0100    0.0100    0.0100    0.0100    0.0100    0.0100    0.0100    0.0100
    0.0100    0.0100    0.0100    0.0100    0.0100    0.0100    0.0100    0.0100
    0.0100    0.0100    0.0100    0.0100    0.0100    0.0100    0.0100    0.0100
    0.0100    0.0100    0.0100    0.0100    0.0100    0.0100    0.0100    0.0100
    0.0100    0.0100    0.0100    0.0100    0.0100    0.0100    0.0100    0.0100
    0.0100    0.0100    0.0100    0.0100    0.0100    0.0100    0.0100    0.0100
    0.0100    0.0100    0.0100    0.0100    0.0100    0.0100    0.0100    0.0100
    0.0100    0.0100    0.0100    0.0100    0.0100    0.0100    0.0100    0.0100
    0.0100    0.0100    0.0100    0.0100    0.0100    0.0100    0.0100    0.0100
    0.0100    0.0100    0.0100    0.0100    0.0100    0.0100    0.0100    0.0100
    0.0100    0.0100    0.0100    0.0100    0.0100    0.0100    0.0100    0.0100
    0.0100    0.0100    0.0100    0.0100    0.0100    0.0100    0.0100    0.0100
    0.0100    0.0100    0.0100    0.0100    0.0100    0.0100    0.0100    0.0100
    0.0100    0.0100    0.0100    0.0100    0.0100    0.0100    0.0100    0.0100
    0.0100    0.0100    0.0100    0.0100    0.0100    0.0100    0.0100    0.0100
    0.0100    0.0100    0.0100    0.0100    0.0100    0.0100    0.0100    0.0100
    0.0100    0.0100    0.0100    0.0100    0.0100    0.0100    0.0100    0.0100
    0.0100    0.0100    0.0100    0.0100    0.0100    0.0100    0.0100    0.0100
    0.0100    0.0100    0.0100    0.0100    0.0100    0.0100    0.0100    0.0100
    0.0100    0.0100    0.0100    0.0100    0.0100    0.0100    0.0100    0.0100
    0.0100    0.0100    0.0100    0.0100    0.0100    0.0100    0.0100    0.0100
    0.0100    0.0100    0.0100    0.0100    0.0100    0.0100    0.0100    0.0100
    0.0100    0.0100    0.0100    0.0100    0.0100    0.0100    0.0100    0.0100
    0.0100    0.0100    0.0100    0.0100    0.0100    0.0100    0.0100    0.0100
    0.0100    0.0100    0.0100    0.0100    0.0100    0.0100    0.0100    0.0100
    0.0100    0.0100    0.0100    0.0100    0.0100    0.0100    0.0100    0.0100
    0.0100    0.0100    0.0100    0.0100    0.0100    0.0100    0.0100    0.0100
    0.0100    0.0100    0.0100    0.0100    0.0100    0.0100    0.0100    0.0100
    0.0100    0.0100    0.0100    0.0100    0.0100    0.0100    0.0100    0.0100
    0.0100    0.0100    0.0100    0.0100    0.0100    0.0100    0.0100    0.0100
    0.0100    0.0100    0.0100    0.0100    0.0100    0.0100    0.0100    0.0100
    0.0100    0.0100    0.0100    0.0100    0.0100    0.0100    0.0100    0.0100
    0.0100    0.0100    0.0100    0.0100    0.0100    0.0100    0.0100    0.0100
    0.0100    0.0100    0.0100    0.0100    0.0100    0.0100    0.0100    0.0100
    0.0100    0.0100    0.0100    0.0100    0.0100    0.0100    0.0100    0.0100
    0.0100    0.0100    0.0100    0.0100    0.0100    0.0100    0.0100    0.0100
    0.0100    0.0100    0.0100    0.0100    0.0100    0.0100    0.0100    0.0100
    0.0100    0.0100    0.0100    0.0100    0.0100    0.0100    0.0100    0.0100
    0.0100    0.0100    0.0100    0.0100    0.0100    0.0100    0.0100    0.0100
    0.0100    0.0100    0.0100    0.0100    0.0100    0.0100    0.0100    0.0100
    0.0100    0.0100    0.0100    0.0100    0.0100    0.0100    0.0100    0.0100
    0.0100    0.0100    0.0100    0.0100    0.0100    0.0100    0.0100    0.0100
    0.0100    0.0100    0.0100    0.0100    0.0100    0.0100    0.0100    0.0100
    0.0100    0.0100    0.0100    0.0100    0.0100    0.0100    0.0100    0.0100
    0.0100    0.0100    0.0100    0.0100    0.0100    0.0100    0.0100    0.0100
    0.0100    0.0100    0.0100    0.0100    0.0100    0.0100    0.0100    0.0100
    0.0100    0.0100    0.0100    0.0100    0.0100    0.0100    0.0100    0.0100
    0.0100    0.0100    0.0100    0.0100    0.0100    0.0100    0.0100    0.0100
    0.0100    0.0100    0.0100    0.0100    0.0100    0.0100    0.0100    0.0100
    0.0100    0.0100    0.0100    0.0100    0.0100    0.0100    0.0100    0.0100
    0.0100    0.0100    0.0100    0.0100    0.0100    0.0100    0.0100    0.0100
    0.0100    0.0100    0.0100    0.0100    0.0100    0.0100    0.0100    0.0100
    0.0100    0.0100    0.0100    0.0100    0.0100    0.0100    0.0100    0.0100
    0.0100    0.0100    0.0100    0.0100    0.0100    0.0100    0.0100    0.0100
    0.0100    0.0100    0.0100    0.0100    0.0100    0.0100    0.0100    0.0100
    0.0100    0.0100    0.0100    0.0100    0.0100    0.0100    0.0100    0.0100
    0.0100    0.0100    0.0100    0.0100    0.0100    0.0100    0.0100    0.0100
    0.0100    0.0100    0.0100    0.0100    0.0100    0.0100    0.0100    0.0100
    0.0100    0.0100    0.0100    0.0100    0.0100    0.0100    0.0100    0.0100
    0.0100    0.0100    0.0100    0.0100    0.0100    0.0100    0.0100    0.0100
    0.0100    0.0100    0.0100    0.0100    0.0100    0.0100    0.0100    0.0100
    0.0100    0.0100    0.0100    0.0100    0.0100    0.0100    0.0100    0.0100
    0.0100    0.0100    0.0100    0.0100    0.0100    0.0100    0.0100    0.0100
    0.0100    0.0100    0.0100    0.0100    0.0100    0.0100    0.0100    0.0100
    0.0100    0.0100    0.0100    0.0100    0.0100    0.0100    0.0100    0.0100
    0.0100    0.0100    0.0100    0.0100    0.0100    0.0100    0.0100    0.0100
    0.0100    0.0100    0.0100    0.0100    0.0100    0.0100    0.0100    0.0100
    0.0100    0.0100    0.0100    0.0100    0.0100    0.0100    0.0100    0.0100
    0.0100    0.0100    0.0100    0.0100    0.0100    0.0100    0.0100    0.0100
    0.0100    0.0100
   </PP_RAB>
 </PP_MESH>
  <PP_LOCAL type="real"  size=" 602" columns="4">
   -5.5633741260E+01   -5.5692625889E+01   -5.5687467081E+01   -5.5646219336E+01
   -5.5596837151E+01   -5.5543307916E+01   -5.5488228057E+01   -5.5433481567E+01
   -5.5380494842E+01   -5.5330392731E+01   -5.5284075690E+01   -5.5242243980E+01
   -5.5205391604E+01   -5.5173786713E+01   -5.5147450409E+01   -5.5126142534E+01
   -5.5109360041E+01   -5.5096351202E+01   -5.5086146095E+01   -5.5077601859E+01
   -5.5069458966E+01   -5.5060403827E+01   -5.5049132182E+01   -5.5034408264E+01
   -5.5015115409E+01   -5.4990294962E+01   -5.4959172506E+01   -5.4921170463E+01
   -5.4875908970E+01   -5.4823196515E+01   -5.4763012677E+01   -5.4695485584E+01
   -5.4620866269E+01   -5.4539501979E+01   -5.4451810297E+01   -5.4358254839E+01
   -5.4259323683E+01   -5.4155510895E+01   -5.4047301290E+01   -5.3935158552E+01
   -5.3819516427E+01   -5.3700772720E+01   -5.3579285775E+01   -5.3455373029E+01
   -5.3329311242E+01   -5.3201338032E+01   -5.3071654339E+01   -5.2940427509E+01
   -5.2807794738E+01   -5.2673866674E+01   -5.2538730915E+01   -5.2402455216E+01
   -5.2265090870E+01   -5.2126675405E+01   -5.1987234915E+01   -5.1846786553E+01
   -5.1705340021E+01   -5.1562899443E+01   -5.1419464418E+01   -5.1275031285E+01
   -5.1129593815E+01   -5.0983144042E+01   -5.0835672712E+01   -5.0687169750E+01
   -5.0537624575E+01   -5.0387026311E+01   -5.0235363965E+01   -5.0082626520E+01
   -4.9928802980E+01   -4.9773882374E+01   -4.9617853714E+01   -4.9460705927E+01
   -4.9302427759E+01   -4.9143007625E+01   -4.8982433472E+01   -4.8820692596E+01
   -4.8657771451E+01   -4.8493655449E+01   -4.8328328743E+01   -4.8161774018E+01
   -4.7993972297E+01   -4.7824902742E+01   -4.7654542483E+01   -4.7482866526E+01
   -4.7309847669E+01   -4.7135456497E+01   -4.6959661452E+01   -4.6782428991E+01
   -4.6603723843E+01   -4.6423509371E+01   -4.6241748025E+01   -4.6058401951E+01
   -4.5873433687E+01   -4.5686806957E+01   -4.5498487558E+01   -4.5308444309E+01
   -4.5116650044E+01   -4.4923082615E+01   -4.4727725865E+01   -4.4530570218E+01
   -4.4331614341E+01   -4.4130865363E+01   -4.3928339403E+01   -4.3724062019E+01
   -4.3518068392E+01   -4.3310402664E+01   -4.3101119904E+01   -4.2890283749E+01
   -4.2677966315E+01   -4.2464247402E+01   -4.2249213828E+01   -4.2032959577E+01
   -4.1815583203E+01   -4.1597187425E+01   -4.1377878237E+01   -4.1157764521E+01
   -4.0936956107E+01   -4.0715563508E+01   -4.0493697337E+01   -4.0271467102E+01
   -4.0048980994E+01   -3.9826346040E+01   -3.9603666094E+01   -3.9381042853E+01
   -3.9158576044E+01   -3.8936361586E+01   -3.8714492540E+01   -3.8493059955E+01
   -3.8272150810E+01   -3.8051849152E+01   -3.7832237294E+01   -3.7613393159E+01
   -3.7395392236E+01   -3.7178308605E+01   -3.6962211354E+01   -3.6747168388E+01
   -3.6533245112E+01   -3.6320502895E+01   -3.6109002379E+01   -3.5898800090E+01
   -3.5689950219E+01   -3.5482505619E+01   -3.5276513952E+01   -3.5072022742E+01
   -3.4869074699E+01   -3.4667710230E+01   -3.4467967770E+01   -3.4269879895E+01
   -3.4073480078E+01   -3.3878793614E+01   -3.3685846316E+01   -3.3494657864E+01
   -3.3305244998E+01   -3.3117621508E+01   -3.2931794432E+01   -3.2747771277E+01
   -3.2565549050E+01   -3.2385128447E+01   -3.2206497075E+01   -3.2029646675E+01
   -3.1854557426E+01   -3.1681211659E+01   -3.1509582405E+01   -3.1339643262E+01
   -3.1171360654E+01   -3.1004700634E+01   -3.0839623910E+01   -3.0676090609E+01
   -3.0514057020E+01   -3.0353479241E+01   -3.0194310795E+01   -3.0036505768E+01
   -2.9880016738E+01   -2.9724798155E+01   -2.9570806539E+01   -2.9417999540E+01
   -2.9266342255E+01   -2.9115797753E+01   -2.8966341017E+01   -2.8817941164E+01
   -2.8670583895E+01   -2.8524244667E+01   -2.8378918639E+01   -2.8234590983E+01
   -2.8091261976E+01   -2.7948927359E+01   -2.7807591104E+01   -2.7667258240E+01
   -2.7527935575E+01   -2.7389634963E+01   -2.7252365857E+01   -2.7116143559E+01
   -2.6980980659E+01   -2.6846892425E+01   -2.6713893948E+01   -2.6581999152E+01
   -2.6451222381E+01   -2.6321577324E+01   -2.6193073602E+01   -2.6065725698E+01
   -2.5939537186E+01   -2.5814517866E+01   -2.5690669898E+01   -2.5567993140E+01
   -2.5446490595E+01   -2.5326150853E+01   -2.5206972794E+01   -2.5088940683E+01
   -2.4972040772E+01   -2.4856259410E+01   -2.4741570288E+01   -2.4627956365E+01
   -2.4515388245E+01   -2.4403838378E+01   -2.4293279851E+01   -2.4183679968E+01
   -2.4075008063E+01   -2.3967233966E+01   -2.3860326946E+01   -2.3754254835E+01
   -2.3648994032E+01   -2.3544514259E+01   -2.3440792536E+01   -2.3337811555E+01
   -2.3235543975E+01   -2.3133981602E+01   -2.3033110441E+01   -2.2932914412E+01
   -2.2833393382E+01   -2.2734537861E+01   -2.2636344364E+01   -2.2538815409E+01
   -2.2441947267E+01   -2.2345743693E+01   -2.2250208318E+01   -2.2155342357E+01
   -2.2061151019E+01   -2.1967638291E+01   -2.1874808294E+01   -2.1782664038E+01
   -2.1691209628E+01   -2.1600448622E+01   -2.1510381703E+01   -2.1421012043E+01
   -2.1332340920E+01   -2.1244366903E+01   -2.1157091491E+01   -2.1070513357E+01
   -2.0984629260E+01   -2.0899438688E+01   -2.0814938133E+01   -2.0731122863E+01
   -2.0647990380E+01   -2.0565535636E+01   -2.0483752739E+01   -2.0402637467E+01
   -2.0322183800E+01   -2.0242385014E+01   -2.0163235541E+01   -2.0084728791E+01
   -2.0006857516E+01   -1.9929615200E+01   -1.9852994921E+01   -1.9776989183E+01
   -1.9701590898E+01   -1.9626792918E+01   -1.9552587743E+01   -1.9478968036E+01
   -1.9405926448E+01   -1.9333455685E+01   -1.9261548426E+01   -1.9190197124E+01
   -1.9119394830E+01   -1.9049134384E+01   -1.8979408306E+01   -1.8910209806E+01
   -1.8841532096E+01   -1.8773367994E+01   -1.8705710685E+01   -1.8638553916E+01
   -1.8571891016E+01   -1.8505714967E+01   -1.8440020174E+01   -1.8374800458E+01
   -1.8310049033E+01   -1.8245760464E+01   -1.8181929184E+01   -1.8118549118E+01
   -1.8055614474E+01   -1.7993120476E+01   -1.7931061820E+01   -1.7869432425E+01
   -1.7808228121E+01   -1.7747444110E+01   -1.7687075141E+01   -1.7627116476E+01
   -1.7567564162E+01   -1.7508413774E+01   -1.7449660175E+01   -1.7391299962E+01
   -1.7333329159E+01   -1.7275743502E+01   -1.7218538908E+01   -1.7161712033E+01
   -1.7105259141E+01   -1.7049176206E+01   -1.6993459827E+01   -1.6938106551E+01
   -1.6883112790E+01   -1.6828474756E+01   -1.6774189344E+01   -1.6720253159E+01
   -1.6666662650E+01   -1.6613414427E+01   -1.6560505474E+01   -1.6507932561E+01
   -1.6455692223E+01   -1.6403781448E+01   -1.6352197266E+01   -1.6300936597E+01
   -1.6249996065E+01   -1.6199372970E+01   -1.6149064413E+01   -1.6099067434E+01
   -1.6049378826E+01   -1.5999996084E+01   -1.5950916408E+01   -1.5902136935E+01
   -1.5853654692E+01   -1.5805467264E+01   -1.5757571982E+01   -1.5709966089E+01
   -1.5662646803E+01   -1.5615611807E+01   -1.5568858553E+01   -1.5522384403E+01
   -1.5476186723E+01   -1.5430263300E+01   -1.5384611707E+01   -1.5339229429E+01
   -1.5294113941E+01   -1.5249263144E+01   -1.5204674722E+01   -1.5160346296E+01
   -1.5116275413E+01   -1.5072460091E+01   -1.5028898124E+01   -1.4985587277E+01
   -1.4942525130E+01   -1.4899709830E+01   -1.4857139275E+01   -1.4814811359E+01
   -1.4772723723E+01   -1.4730874592E+01   -1.4689261979E+01   -1.4647883878E+01
   -1.4606738084E+01   -1.4565822781E+01   -1.4525136133E+01   -1.4484676226E+01
   -1.4444441024E+01   -1.4404428635E+01   -1.4364637380E+01   -1.4325065437E+01
   -1.4285710941E+01   -1.4246571904E+01   -1.4207646805E+01   -1.4168933905E+01
   -1.4130431467E+01   -1.4092137554E+01   -1.4054050631E+01   -1.4016169098E+01
   -1.3978491298E+01   -1.3941015481E+01   -1.3903739951E+01   -1.3866663286E+01
   -1.3829783905E+01   -1.3793100230E+01   -1.3756610466E+01   -1.3720313284E+01
   -1.3684207206E+01   -1.3648290724E+01   -1.3612562244E+01   -1.3577020222E+01
   -1.3541663372E+01   -1.3506490258E+01   -1.3471499444E+01   -1.3436689312E+01
   -1.3402058609E+01   -1.3367606015E+01   -1.3333330162E+01   -1.3299229644E+01
   -1.3265302948E+01   -1.3231548957E+01   -1.3197966366E+01   -1.3164553868E+01
   -1.3131310055E+01   -1.3098233633E+01   -1.3065323477E+01   -1.3032578341E+01
   -1.2999996981E+01   -1.2967577998E+01   -1.2935320280E+01   -1.2903222703E+01
   -1.2871284080E+01   -1.2839503225E+01   -1.2807878760E+01   -1.2776409720E+01
   -1.2745094992E+01   -1.2713933445E+01   -1.2682923936E+01   -1.2652065156E+01
   -1.2621356217E+01   -1.2590796041E+01   -1.2560383548E+01   -1.2530117633E+01
   -1.2499997079E+01   -1.2470021028E+01   -1.2440188453E+01   -1.2410498325E+01
   -1.2380949585E+01   -1.2351541077E+01   -1.2322271985E+01   -1.2293141330E+01
   -1.2264148129E+01   -1.2235291381E+01   -1.2206569964E+01   -1.2177983112E+01
   -1.2149529888E+01   -1.2121209359E+01   -1.2093020586E+01   -1.2064962458E+01
   -1.2037034263E+01   -1.2009235110E+01   -1.1981564109E+01   -1.1954020367E+01
   -1.1926602837E+01   -1.1899310794E+01   -1.1872143413E+01   -1.1845099844E+01
   -1.1818179238E+01   -1.1791380632E+01   -1.1764703247E+01   -1.1738146340E+01
   -1.1711709101E+01   -1.1685390720E+01   -1.1659190323E+01   -1.1633107063E+01
   -1.1607140281E+01   -1.1581289203E+01   -1.1555553058E+01   -1.1529931073E+01
   -1.1504422309E+01   -1.1479026195E+01   -1.1453741997E+01   -1.1428568976E+01
   -1.1403506397E+01   -1.1378553424E+01   -1.1353709371E+01   -1.1328973605E+01
   -1.1304345423E+01   -1.1279824124E+01   -1.1255408985E+01   -1.1231099186E+01
   -1.1206894199E+01   -1.1182793354E+01   -1.1158795982E+01   -1.1134901415E+01
   -1.1111108890E+01   -1.1087417779E+01   -1.1063827511E+01   -1.1040337450E+01
   -1.1016946957E+01   -1.0993655393E+01   -1.0970461973E+01   -1.0947366228E+01
   -1.0924367556E+01   -1.0901465349E+01   -1.0878658997E+01   -1.0855947849E+01
   -1.0833331239E+01   -1.0810808696E+01   -1.0788379639E+01   -1.0766043488E+01
   -1.0743799664E+01   -1.0721647505E+01   -1.0699586457E+01   -1.0677616037E+01
   -1.0655735690E+01   -1.0633944864E+01   -1.0612243006E+01   -1.0590629458E+01
   -1.0569103749E+01   -1.0547665393E+01   -1.0526313862E+01   -1.0505048630E+01
   -1.0483869168E+01   -1.0462774830E+01   -1.0441765207E+01   -1.0420839817E+01
   -1.0399998158E+01   -1.0379239728E+01   -1.0358564022E+01   -1.0337970417E+01
   -1.0317458538E+01   -1.0297027919E+01   -1.0276678082E+01   -1.0256408548E+01
   -1.0236218836E+01   -1.0216108353E+01   -1.0196076734E+01   -1.0176123542E+01
   -1.0156248319E+01   -1.0136450609E+01   -1.0116729954E+01   -1.0097085796E+01
   -1.0077517765E+01   -1.0058025456E+01   -1.0038608433E+01   -1.0019266260E+01
   -9.9999985022E+00   -9.9808046458E+00   -9.9616842923E+00   -9.9426370785E+00
   -9.9236625889E+00   -9.9047604082E+00   -9.8859301211E+00   -9.8671712671E+00
   -9.8484834010E+00   -9.8298662079E+00   -9.8113192920E+00   -9.7928422571E+00
   -9.7744347072E+00   -9.7560962421E+00   -9.7378263531E+00   -9.7196247797E+00
   -9.7014911442E+00   -9.6834250692E+00   -9.6654261771E+00   -9.6474940903E+00
   -9.6296283545E+00   -9.6118286358E+00   -9.5940946182E+00   -9.5764259415E+00
   -9.5588222458E+00   -9.5412831712E+00   -9.5238083380E+00   -9.5063973112E+00
   -9.4890498446E+00   -9.4717655950E+00   -9.4545442192E+00   -9.4373853741E+00
   -9.4202887164E+00   -9.4032538322E+00   -9.3862804142E+00   -9.3693681794E+00
   -9.3525168006E+00   -9.3357259507E+00   -9.3189953023E+00   -9.3023245283E+00
   -9.2857131922E+00   -9.2691610893E+00   -9.2526679090E+00   -9.2362333394E+00
   -9.2198570685E+00   -9.2035387843E+00   -9.1872781442E+00   -9.1710747920E+00
   -9.1549285089E+00   -9.1388389974E+00   -9.1228059601E+00   -9.1068290995E+00
   -9.0909081183E+00   -9.0750426664E+00   -9.0592324509E+00   -9.0434772426E+00
   -9.0277767582E+00   -9.0121307138E+00   -8.9965388262E+00   -8.9810008115E+00
   -8.9655163215E+00   -8.9500851055E+00   -8.9347069328E+00   -8.9193815331E+00
   -8.9041086361E+00   -8.8888879714E+00   -8.8737192686E+00   -8.8586021894E+00
   -8.8435365054E+00   -8.8285219930E+00   -8.8135583943E+00   -8.7986454516E+00
   -8.7837829071E+00   -8.7689705031E+00   -8.7542079189E+00   -8.7394949301E+00
   -8.7248313278E+00   -8.7102168661E+00   -8.6956512994E+00   -8.6811343819E+00
   -8.6666658679E+00   -8.6522454617E+00
  </PP_LOCAL>
 <PP_NONLOCAL>
   <PP_BETA.1
       type="real"
       size=" 602"
       columns="4"
       index="1"
       angular_momentum="0"
       cutoff_radius_index=" 304"
       cutoff_radius="    3.0300000000E+00" >
    0.0000000000E+00   -1.6835736132E-03   -3.3623813201E-03   -5.0316241536E-03
   -6.6864368061E-03   -8.3218539179E-03   -9.9327757366E-03   -1.1513932966E-02
   -1.3059850652E-02   -1.4564810986E-02   -1.6022814942E-02   -1.7427542694E-02
   -1.8772312841E-02   -2.0050040478E-02   -2.1253194208E-02   -2.2373752307E-02
   -2.3403158193E-02   -2.4332275557E-02   -2.5151343402E-02   -2.5849931499E-02
   -2.6416896535E-02   -2.6840339705E-02   -2.7107566031E-02   -2.7205046155E-02
   -2.7118381204E-02   -2.6832271526E-02   -2.6330489514E-02   -2.5595858031E-02
   -2.4610234377E-02   -2.3354500944E-02   -2.1808563227E-02   -1.9951355827E-02
   -1.7760857226E-02   -1.5214113916E-02   -1.2287274405E-02   -8.9556339497E-03
   -5.1936902217E-03   -9.7521006285E-04    3.7266906551E-03    8.9394568424E-03
    1.4690990710E-02    2.1009536154E-02    2.7923550888E-02    3.5461566464E-02
    4.3652036446E-02    5.2523173089E-02    6.2102773006E-02    7.2418032494E-02
    8.3495353424E-02    9.5360143008E-02    1.0803660503E-01    1.2154750772E-01
    1.3591398228E-01    1.5115529634E-01    1.6728859163E-01    1.8432871867E-01
    2.0228792746E-01    2.2117572773E-01    2.4099857755E-01    2.6175977079E-01