<UPF version="2.0.1">
  <PP_INFO>

 Hg_ONCV_PBE_FR-1.0.upf

 This pseudopotential file has been produced using the code
 ONCVPSP  (Optimized Norm-Conservinng Vanderbilt PSeudopotential)
 fully-relativistic version 2.1.1, 03/26/2014 by D. R. Hamann
 The code is available through a link at URL www.mat-simresearch.com.
 Documentation with the package provides a full description of the
 input data below.

 While it is not required under the terms of the GNU GPL, it is
 suggested that you cite D. R. Hamann, Phys. Rev. B 88, 085117 (2013)
 in any publication using these pseudopotentials.

 -----

 This pseudopotential was produced with the SG15 1.0 and/or 1.1
 parameter sets, the Schlipf-Gygi norm-conserving pseudopotential
 library. For details of the construction and testing of the
 pseudopotential please refer to:

 M. Schlipf, F. Gygi, Comp. Phys. Comm. 196, 36 (2015)
 http://dx.doi.org/10.1016/j.cpc.2015.05.011

 The above authors kindly ask that you include this reference in all
 publications associated to this pseudopotential.

 Please note this fully-relativistic version does not employ the
 above self-consistent procedure at the fully-relativistic level.

 -----

 This pseudopotential was produced by Peter Scherpelz for the purpose
 of performing GW calculations with spin-orbit-coupling. Please see
 the publication:

 P. Scherpelz, M. Govoni, I. Hamada, G. Galli; J. Chem. Theory Comput. (2016)
 http://dx.doi.org/10.1021/acs.jctc.6b00114

 If you use these pseudopotentials in your work, we also kindly ask
 that you cite the above publication.

 -----

 This work is licensed under the Creative Commons Attribution-ShareAlike 
 4.0 International License. To view a copy of this license, visit 
 http://creativecommons.org/licenses/by-sa/4.0/ or send a letter to 
 Creative Commons, PO Box 1866, Mountain View, CA 94042, USA.

 The SG15 library is Copyright 2015 The Regents of the University of
 California.  Further modifications of these files are Copyright 2016
 Peter Scherpelz.

    <PP_INPUTFILE>
# ATOM AND REFERENCE CONFIGURATION
# atsym  z    nc    nv    iexc   psfile
  Hg 80.00    10     4     4      upf
#
#   n    l    f        energy (Ha)
    1    0    2.00
    2    0    2.00
    2    1    6.00
    3    0    2.00
    3    1    6.00
    3    2   10.00
    4    0    2.00
    4    1    6.00
    4    2   10.00
    4    3   14.00
    5    0    2.00
    5    1    6.00
    6    0    2.00
    5    2   10.00
#
# PSEUDOPOTENTIAL AND OPTIMIZATION
# lmax
    3
#
#   l,   rc,     ep,   ncon, nbas, qcut
    0    2.34   -4.33    5    8    6.56
    1    2.32   -2.26    5    8    6.68
    2    2.18   -0.34    5    8    6.85
    3    3.24    0.21    5    8    4.90
#
# LOCAL POTENTIAL
# lloc, lpopt,  rc(5),   dvloc0
    4    5      1.53       0.00
#
# VANDERBILT-KLEINMAN-BYLANDER PROJECTORs
# l, nproj, debl
    0    2    4.0812
    1    2    2.2310
    2    2    1.5211
    3    2    1.6698
#
# MODEL CORE CHARGE
# icmod, fcfact
    0    0.00
#
# LOG DERIVATIVE ANALYSIS
# epsh1, epsh2, depsh
   -5.00    3.00    0.02
#
# OUTPUT GRID
# rlmax, drl
    6.00    0.01
#
# TEST CONFIGURATIONS
# ncnf
    0
# nvcnf
#   n    l    f
    </PP_INPUTFILE>
  </PP_INFO>
  <!--                               -->
  <!-- END OF HUMAN READABLE SECTION -->
  <!--                               -->
    <PP_HEADER
       generated="Generated using ONCVPSP code by D. R. Hamann"
       author="anonymous"
       date="150703"
       comment=""
       element="Hg"
       pseudo_type="NC"
       relativistic="full"
       is_ultrasoft="F"
       is_paw="F"
       is_coulomb="F"
       has_so="T"
       has_wfc="F"
       has_gipaw="F"
       core_correction="F"
       functional="PBE"
       z_valence="   20.00"
       total_psenergy="  -1.55263296331E+02"
       rho_cutoff="   6.01000000000E+00"
       l_max="3"
       l_local="-1"
       mesh_size="   602"
       number_of_wfc="0"
       number_of_proj="14"/>
 <PP_MESH>
   <PP_R type="real"  size=" 602" columns="8">
    0.0000    0.0100    0.0200    0.0300    0.0400    0.0500    0.0600    0.0700
    0.0800    0.0900    0.1000    0.1100    0.1200    0.1300    0.1400    0.1500
    0.1600    0.1700    0.1800    0.1900    0.2000    0.2100    0.2200    0.2300
    0.2400    0.2500    0.2600    0.2700    0.2800    0.2900    0.3000    0.3100
    0.3200    0.3300    0.3400    0.3500    0.3600    0.3700    0.3800    0.3900
    0.4000    0.4100    0.4200    0.4300    0.4400    0.4500    0.4600    0.4700
    0.4800    0.4900    0.5000    0.5100    0.5200    0.5300    0.5400    0.5500
    0.5600    0.5700    0.5800    0.5900    0.6000    0.6100    0.6200    0.6300
    0.6400    0.6500    0.6600    0.6700    0.6800    0.6900    0.7000    0.7100
    0.7200    0.7300    0.7400    0.7500    0.7600    0.7700    0.7800    0.7900
    0.8000    0.8100    0.8200    0.8300    0.8400    0.8500    0.8600    0.8700
    0.8800    0.8900    0.9000    0.9100    0.9200    0.9300    0.9400    0.9500
    0.9600    0.9700    0.9800    0.9900    1.0000    1.0100    1.0200    1.0300
    1.0400    1.0500    1.0600    1.0700    1.0800    1.0900    1.1000    1.1100
    1.1200    1.1300    1.1400    1.1500    1.1600    1.1700    1.1800    1.1900
    1.2000    1.2100    1.2200    1.2300    1.2400    1.2500    1.2600    1.2700
    1.2800    1.2900    1.3000    1.3100    1.3200    1.3300    1.3400    1.3500
    1.3600    1.3700    1.3800    1.3900    1.4000    1.4100    1.4200    1.4300
    1.4400    1.4500    1.4600    1.4700    1.4800    1.4900    1.5000    1.5100
    1.5200    1.5300    1.5400    1.5500    1.5600    1.5700    1.5800    1.5900
    1.6000    1.6100    1.6200    1.6300    1.6400    1.6500    1.6600    1.6700
    1.6800    1.6900    1.7000    1.7100    1.7200    1.7300    1.7400    1.7500
    1.7600    1.7700    1.7800    1.7900    1.8000    1.8100    1.8200    1.8300
    1.8400    1.8500    1.8600    1.8700    1.8800    1.8900    1.9000    1.9100
    1.9200    1.9300    1.9400    1.9500    1.9600    1.9700    1.9800    1.9900
    2.0000    2.0100    2.0200    2.0300    2.0400    2.0500    2.0600    2.0700
    2.0800    2.0900    2.1000    2.1100    2.1200    2.1300    2.1400    2.1500
    2.1600    2.1700    2.1800    2.1900    2.2000    2.2100    2.2200    2.2300
    2.2400    2.2500    2.2600    2.2700    2.2800    2.2900    2.3000    2.3100
    2.3200    2.3300    2.3400    2.3500    2.3600    2.3700    2.3800    2.3900
    2.4000    2.4100    2.4200    2.4300    2.4400    2.4500    2.4600    2.4700
    2.4800    2.4900    2.5000    2.5100    2.5200    2.5300    2.5400    2.5500
    2.5600    2.5700    2.5800    2.5900    2.6000    2.6100    2.6200    2.6300
    2.6400    2.6500    2.6600    2.6700    2.6800    2.6900    2.7000    2.7100
    2.7200    2.7300    2.7400    2.7500    2.7600    2.7700    2.7800    2.7900
    2.8000    2.8100    2.8200    2.8300    2.8400    2.8500    2.8600    2.8700
    2.8800    2.8900    2.9000    2.9100    2.9200    2.9300    2.9400    2.9500
    2.9600    2.9700    2.9800    2.9900    3.0000    3.0100    3.0200    3.0300
    3.0400    3.0500    3.0600    3.0700    3.0800    3.0900    3.1000    3.1100
    3.1200    3.1300    3.1400    3.1500    3.1600    3.1700    3.1800    3.1900
    3.2000    3.2100    3.2200    3.2300    3.2400    3.2500    3.2600    3.2700
    3.2800    3.2900    3.3000    3.3100    3.3200    3.3300    3.3400    3.3500
    3.3600    3.3700    3.3800    3.3900    3.4000    3.4100    3.4200    3.4300
    3.4400    3.4500    3.4600    3.4700    3.4800    3.4900    3.5000    3.5100
    3.5200    3.5300    3.5400    3.5500    3.5600    3.5700    3.5800    3.5900
    3.6000    3.6100    3.6200    3.6300    3.6400    3.6500    3.6600    3.6700
    3.6800    3.6900    3.7000    3.7100    3.7200    3.7300    3.7400    3.7500
    3.7600    3.7700    3.7800    3.7900    3.8000    3.8100    3.8200    3.8300
    3.8400    3.8500    3.8600    3.8700    3.8800    3.8900    3.9000    3.9100
    3.9200    3.9300    3.9400    3.9500    3.9600    3.9700    3.9800    3.9900
    4.0000    4.0100    4.0200    4.0300    4.0400    4.0500    4.0600    4.0700
    4.0800    4.0900    4.1000    4.1100    4.1200    4.1300    4.1400    4.1500
    4.1600    4.1700    4.1800    4.1900    4.2000    4.2100    4.2200    4.2300
    4.2400    4.2500    4.2600    4.2700    4.2800    4.2900    4.3000    4.3100
    4.3200    4.3300    4.3400    4.3500    4.3600    4.3700    4.3800    4.3900
    4.4000    4.4100    4.4200    4.4300    4.4400    4.4500    4.4600    4.4700
    4.4800    4.4900    4.5000    4.5100    4.5200    4.5300    4.5400    4.5500
    4.5600    4.5700    4.5800    4.5900    4.6000    4.6100    4.6200    4.6300
    4.6400    4.6500    4.6600    4.6700    4.6800    4.6900    4.7000    4.7100
    4.7200    4.7300    4.7400    4.7500    4.7600    4.7700    4.7800    4.7900
    4.8000    4.8100    4.8200    4.8300    4.8400    4.8500    4.8600    4.8700
    4.8800    4.8900    4.9000    4.9100    4.9200    4.9300    4.9400    4.9500
    4.9600    4.9700    4.9800    4.9900    5.0000    5.0100    5.0200    5.0300
    5.0400    5.0500    5.0600    5.0700    5.0800    5.0900    5.1000    5.1100
    5.1200    5.1300    5.1400    5.1500    5.1600    5.1700    5.1800    5.1900
    5.2000    5.2100    5.2200    5.2300    5.2400    5.2500    5.2600    5.2700
    5.2800    5.2900    5.3000    5.3100    5.3200    5.3300    5.3400    5.3500
    5.3600    5.3700    5.3800    5.3900    5.4000    5.4100    5.4200    5.4300
    5.4400    5.4500    5.4600    5.4700    5.4800    5.4900    5.5000    5.5100
    5.5200    5.5300    5.5400    5.5500    5.5600    5.5700    5.5800    5.5900
    5.6000    5.6100    5.6200    5.6300    5.6400    5.6500    5.6600    5.6700
    5.6800    5.6900    5.7000    5.7100    5.7200    5.7300    5.7400    5.7500
    5.7600    5.7700    5.7800    5.7900    5.8000    5.8100    5.8200    5.8300
    5.8400    5.8500    5.8600    5.8700    5.8800    5.8900    5.9000    5.9100
    5.9200    5.9300    5.9400    5.9500    5.9600    5.9700    5.9800    5.9900
    6.0000    6.0100
   </PP_R>
   <PP_RAB type="real"  size=" 602" columns="8">
    0.0100    0.0100    0.0100    0.0100    0.0100    0.0100    0.0100    0.0100
    0.0100    0.0100    0.0100    0.0100    0.0100    0.0100    0.0100    0.0100
    0.0100    0.0100    0.0100    0.0100    0.0100    0.0100    0.0100    0.0100
    0.0100    0.0100    0.0100    0.0100    0.0100    0.0100    0.0100    0.0100
    0.0100    0.0100    0.0100    0.0100    0.0100    0.0100    0.0100    0.0100
    0.0100    0.0100    0.0100    0.0100    0.0100    0.0100    0.0100    0.0100
    0.0100    0.0100    0.0100    0.0100    0.0100    0.0100    0.0100    0.0100
    0.0100    0.0100    0.0100    0.0100    0.0100    0.0100    0.0100    0.0100
    0.0100    0.0100    0.0100    0.0100    0.0100    0.0100    0.0100    0.0100
    0.0100    0.0100    0.0100    0.0100    0.0100    0.0100    0.0100    0.0100
    0.0100    0.0100    0.0100    0.0100    0.0100    0.0100    0.0100    0.0100
    0.0100    0.0100    0.0100    0.0100    0.0100    0.0100    0.0100    0.0100
    0.0100    0.0100    0.0100    0.0100    0.0100    0.0100    0.0100    0.0100
    0.0100    0.0100    0.0100    0.0100    0.0100    0.0100    0.0100    0.0100
    0.0100    0.0100    0.0100    0.0100    0.0100    0.0100    0.0100    0.0100
    0.0100    0.0100    0.0100    0.0100    0.0100    0.0100    0.0100    0.0100
    0.0100    0.0100    0.0100    0.0100    0.0100    0.0100    0.0100    0.0100
    0.0100    0.0100    0.0100    0.0100    0.0100    0.0100    0.0100    0.0100
    0.0100    0.0100    0.0100    0.0100    0.0100    0.0100    0.0100    0.0100
    0.0100    0.0100    0.0100    0.0100    0.0100    0.0100    0.0100    0.0100
    0.0100    0.0100    0.0100    0.0100    0.0100    0.0100    0.0100    0.0100
    0.0100    0.0100    0.0100    0.0100    0.0100    0.0100    0.0100    0.0100
    0.0100    0.0100    0.0100    0.0100    0.0100    0.0100    0.0100    0.0100
    0.0100    0.0100    0.0100    0.0100    0.0100    0.0100    0.0100    0.0100
    0.0100    0.0100    0.0100    0.0100    0.0100    0.0100    0.0100    0.0100
    0.0100    0.0100    0.0100    0.0100    0.0100    0.0100    0.0100    0.0100
    0.0100    0.0100    0.0100    0.0100    0.0100    0.0100    0.0100    0.0100
    0.0100    0.0100    0.0100    0.0100    0.0100    0.0100    0.0100    0.0100
    0.0100    0.0100    0.0100    0.0100    0.0100    0.0100    0.0100    0.0100
    0.0100    0.0100    0.0100    0.0100    0.0100    0.0100    0.0100    0.0100
    0.0100    0.0100    0.0100    0.0100    0.0100    0.0100    0.0100    0.0100
    0.0100    0.0100    0.0100    0.0100    0.0100    0.0100    0.0100    0.0100
    0.0100    0.0100    0.0100    0.0100    0.0100    0.0100    0.0100    0.0100
    0.0100    0.0100    0.0100    0.0100    0.0100    0.0100    0.0100    0.0100
    0.0100    0.0100    0.0100    0.0100    0.0100    0.0100    0.0100    0.0100
    0.0100    0.0100    0.0100    0.0100    0.0100    0.0100    0.0100    0.0100
    0.0100    0.0100    0.0100    0.0100    0.0100    0.0100    0.0100    0.0100
    0.0100    0.0100    0.0100    0.0100    0.0100    0.0100    0.0100    0.0100
    0.0100    0.0100    0.0100    0.0100    0.0100    0.0100    0.0100    0.0100
    0.0100    0.0100    0.0100    0.0100    0.0100    0.0100    0.0100    0.0100
    0.0100    0.0100    0.0100    0.0100    0.0100    0.0100    0.0100    0.0100
    0.0100    0.0100    0.0100    0.0100    0.0100    0.0100    0.0100    0.0100
    0.0100    0.0100    0.0100    0.0100    0.0100    0.0100    0.0100    0.0100
    0.0100    0.0100    0.0100    0.0100    0.0100    0.0100    0.0100    0.0100
    0.0100    0.0100    0.0100    0.0100    0.0100    0.0100    0.0100    0.0100
    0.0100    0.0100    0.0100    0.0100    0.0100    0.0100    0.0100    0.0100
    0.0100    0.0100    0.0100    0.0100    0.0100    0.0100    0.0100    0.0100
    0.0100    0.0100    0.0100    0.0100    0.0100    0.0100    0.0100    0.0100
    0.0100    0.0100    0.0100    0.0100    0.0100    0.0100    0.0100    0.0100
    0.0100    0.0100    0.0100    0.0100    0.0100    0.0100    0.0100    0.0100
    0.0100    0.0100    0.0100    0.0100    0.0100    0.0100    0.0100    0.0100
    0.0100    0.0100    0.0100    0.0100    0.0100    0.0100    0.0100    0.0100
    0.0100    0.0100    0.0100    0.0100    0.0100    0.0100    0.0100    0.0100
    0.0100    0.0100    0.0100    0.0100    0.0100    0.0100    0.0100    0.0100
    0.0100    0.0100    0.0100    0.0100    0.0100    0.0100    0.0100    0.0100
    0.0100    0.0100    0.0100    0.0100    0.0100    0.0100    0.0100    0.0100
    0.0100    0.0100    0.0100    0.0100    0.0100    0.0100    0.0100    0.0100
    0.0100    0.0100    0.0100    0.0100    0.0100    0.0100    0.0100    0.0100
    0.0100    0.0100    0.0100    0.0100    0.0100    0.0100    0.0100    0.0100
    0.0100    0.0100    0.0100    0.0100    0.0100    0.0100    0.0100    0.0100
    0.0100    0.0100    0.0100    0.0100    0.0100    0.0100    0.0100    0.0100
    0.0100    0.0100    0.0100    0.0100    0.0100    0.0100    0.0100    0.0100
    0.0100    0.0100    0.0100    0.0100    0.0100    0.0100    0.0100    0.0100
    0.0100    0.0100    0.0100    0.0100    0.0100    0.0100    0.0100    0.0100
    0.0100    0.0100    0.0100    0.0100    0.0100    0.0100    0.0100    0.0100
    0.0100    0.0100    0.0100    0.0100    0.0100    0.0100    0.0100    0.0100
    0.0100    0.0100    0.0100    0.0100    0.0100    0.0100    0.0100    0.0100
    0.0100    0.0100    0.0100    0.0100    0.0100    0.0100    0.0100    0.0100
    0.0100    0.0100    0.0100    0.0100    0.0100    0.0100    0.0100    0.0100
    0.0100    0.0100    0.0100    0.0100    0.0100    0.0100    0.0100    0.0100
    0.0100    0.0100    0.0100    0.0100    0.0100    0.0100    0.0100    0.0100
    0.0100    0.0100    0.0100    0.0100    0.0100    0.0100    0.0100    0.0100
    0.0100    0.0100    0.0100    0.0100    0.0100    0.0100    0.0100    0.0100
    0.0100    0.0100    0.0100    0.0100    0.0100    0.0100    0.0100    0.0100
    0.0100    0.0100    0.0100    0.0100    0.0100    0.0100    0.0100    0.0100
    0.0100    0.0100
   </PP_RAB>
 </PP_MESH>
  <PP_LOCAL type="real"  size=" 602" columns="4">
   -5.7375255773E+01   -5.7373081465E+01   -5.7366588425E+01   -5.7355743590E+01
   -5.7340513900E+01   -5.7320856088E+01   -5.7296719373E+01   -5.7268048480E+01
   -5.7234786775E+01   -5.7196879261E+01   -5.7154275266E+01   -5.7106930680E+01
   -5.7054809651E+01   -5.6997885736E+01   -5.6936142501E+01   -5.6869573643E+01
   -5.6798182708E+01   -5.6721982492E+01   -5.6640994219E+01   -5.6555246570E+01
   -5.6464774657E+01   -5.6369618975E+01   -5.6269824401E+01   -5.6165439252E+01
   -5.6056514446E+01   -5.5943102749E+01   -5.5825258139E+01   -5.5703035259E+01
   -5.5576488977E+01   -5.5445674024E+01   -5.5310644715E+01   -5.5171454736E+01
   -5.5028156986E+01   -5.4880803474E+01   -5.4729445247E+01   -5.4574132364E+01
   -5.4414913884E+01   -5.4251837889E+01   -5.4084951512E+01   -5.3914300993E+01
   -5.3739931739E+01   -5.3561888395E+01   -5.3380214927E+01   -5.3194954712E+01
   -5.3006150631E+01   -5.2813845176E+01   -5.2618080561E+01   -5.2418898833E+01
   -5.2216342001E+01   -5.2010452159E+01   -5.1801271630E+01   -5.1588843098E+01
   -5.1373209759E+01   -5.1154415474E+01   -5.0932504925E+01   -5.0707523758E+01
   -5.0479518782E+01   -5.0248538067E+01   -5.0014631185E+01   -4.9777849276E+01
   -4.9538245287E+01   -4.9295874054E+01   -4.9050792444E+01   -4.8803059543E+01
   -4.8552736666E+01   -4.8299887521E+01   -4.8044578309E+01   -4.7786877722E+01
   -4.7526856970E+01   -4.7264589932E+01   -4.7000153037E+01   -4.6733625274E+01
   -4.6465088152E+01   -4.6194625620E+01   -4.5922324076E+01   -4.5648272167E+01
   -4.5372560708E+01   -4.5095282553E+01   -4.4816532449E+01   -4.4536406880E+01
   -4.4255003903E+01   -4.3972422976E+01   -4.3688764778E+01   -4.3404131030E+01
   -4.3118624309E+01   -4.2832347869E+01   -4.2545405456E+01   -4.2257901132E+01
   -4.1969939103E+01   -4.1681623543E+01   -4.1393058438E+01   -4.1104347426E+01
   -4.0815593646E+01   -4.0526899594E+01   -4.0238366990E+01   -3.9950096645E+01
   -3.9662188339E+01   -3.9374740710E+01   -3.9087851199E+01   -3.8801615781E+01
   -3.8516129013E+01   -3.8231483899E+01   -3.7947771802E+01   -3.7665082364E+01
   -3.7383503550E+01   -3.7103121244E+01   -3.6824019411E+01   -3.6546280021E+01
   -3.6269982963E+01   -3.5995206221E+01   -3.5722025109E+01   -3.5450512839E+01
   -3.5180740325E+01   -3.4912776391E+01   -3.4646686972E+01   -3.4382535573E+01
   -3.4120383285E+01   -3.3860289126E+01   -3.3602308542E+01   -3.3346494748E+01
   -3.3092898653E+01   -3.2841568113E+01   -3.2592547892E+01   -3.2345880524E+01
   -3.2101605906E+01   -3.1859760155E+01   -3.1620377291E+01   -3.1383488875E+01
   -3.1149122270E+01   -3.0917302965E+01   -3.0688053798E+01   -3.0461393365E+01
   -3.0237338705E+01   -3.0015903517E+01   -2.9797097715E+01   -2.9580930038E+01
   -2.9367404570E+01   -2.9156522924E+01   -2.8948285120E+01   -2.8742685691E+01
   -2.8539718563E+01   -2.8339373435E+01   -2.8141636710E+01   -2.7946493884E+01
   -2.7753924193E+01   -2.7563907041E+01   -2.7376416507E+01   -2.7191424466E+01
   -2.7008900494E+01   -2.6828808578E+01   -2.6651113646E+01   -2.6475772323E+01
   -2.6302742782E+01   -2.6131975822E+01   -2.5963423486E+01   -2.5797035628E+01
   -2.5632764864E+01   -2.5470564549E+01   -2.5310390972E+01   -2.5152200207E+01
   -2.4995952056E+01   -2.4841605165E+01   -2.4689122539E+01   -2.4538465338E+01
   -2.4389599391E+01   -2.4242488554E+01   -2.4097100986E+01   -2.3953403122E+01
   -2.3811365350E+01   -2.3670956443E+01   -2.3532148905E+01   -2.3394913608E+01
   -2.3259225062E+01   -2.3125056015E+01   -2.2992382823E+01   -2.2861179980E+01
   -2.2731425389E+01   -2.2603095332E+01   -2.2476168872E+01   -2.2350624008E+01
   -2.2226440751E+01   -2.2103598665E+01   -2.1982078533E+01   -2.1861861308E+01
   -2.1742928405E+01   -2.1625261971E+01   -2.1508843951E+01   -2.1393657473E+01
   -2.1279684953E+01   -2.1166910204E+01   -2.1055316309E+01   -2.0944887337E+01
   -2.0835607097E+01   -2.0727459774E+01   -2.0620429786E+01   -2.0514501435E+01
   -2.0409659608E+01   -2.0305888773E+01   -2.0203174088E+01   -2.0101500410E+01
   -2.0000852923E+01   -1.9901216945E+01   -1.9802577657E+01   -1.9704920825E+01
   -1.9608231783E+01   -1.9512496518E+01   -1.9417700862E+01   -1.9323830744E+01
   -1.9230872673E+01   -1.9138812578E+01   -1.9047637423E+01   -1.8957333784E+01
   -1.8867888467E+01   -1.8779289000E+01   -1.8691522148E+01   -1.8604575982E+01
   -1.8518438141E+01   -1.8433096340E+01   -1.8348539546E+01   -1.8264755497E+01
   -1.8181733777E+01   -1.8099464085E+01   -1.8017935370E+01   -1.7937138422E+01
   -1.7857063200E+01   -1.7777699971E+01   -1.7699039497E+01   -1.7621071880E+01
   -1.7543788298E+01   -1.7467179897E+01   -1.7391237287E+01   -1.7315952383E+01
   -1.7241316493E+01   -1.7167321008E+01   -1.7093958142E+01   -1.7021219516E+01
   -1.6949097214E+01   -1.6877583730E+01   -1.6806671013E+01   -1.6736351735E+01
   -1.6666618637E+01   -1.6597463958E+01   -1.6528880896E+01   -1.6460862468E+01
   -1.6393401222E+01   -1.6326490819E+01   -1.6260124527E+01   -1.6194295294E+01
   -1.6128997089E+01   -1.6064223460E+01   -1.5999967719E+01   -1.5936224116E+01
   -1.5872986494E+01   -1.5810248483E+01   -1.5748004605E+01   -1.5686248998E+01
   -1.5624975561E+01   -1.5564179085E+01   -1.5503854006E+01   -1.5443994442E+01
   -1.5384595454E+01   -1.5325651750E+01   -1.5267157697E+01   -1.5209108552E+01
   -1.5151499293E+01   -1.5094324579E+01   -1.5037579775E+01   -1.4981260145E+01
   -1.4925360645E+01   -1.4869876704E+01   -1.4814803873E+01   -1.4760137407E+01
   -1.4705872765E+01   -1.4652005779E+01   -1.4598532009E+01   -1.4545446909E+01
   -1.4492746588E+01   -1.4440426877E+01   -1.4388483312E+01   -1.4336912157E+01
   -1.4285709475E+01   -1.4234871097E+01   -1.4184393203E+01   -1.4134272147E+01
   -1.4084504071E+01   -1.4035085039E+01   -1.3986011691E+01   -1.3937280414E+01
   -1.3888887345E+01   -1.3840829191E+01   -1.3793102573E+01   -1.3745703932E+01
   -1.3698629795E+01   -1.3651877076E+01   -1.3605442494E+01   -1.3559322506E+01
   -1.3513514176E+01   -1.3468014415E+01   -1.3422819989E+01   -1.3377927723E+01
   -1.3333334828E+01   -1.3289038317E+01   -1.3245034988E+01   -1.3201322111E+01
   -1.3157896908E+01   -1.3114756491E+01   -1.3071897842E+01   -1.3029318482E+01
   -1.2987015698E+01   -1.2944986639E+01   -1.2903228648E+01   -1.2861739281E+01
   -1.2820515951E+01   -1.2779555861E+01   -1.2738856669E+01   -1.2698415969E+01
   -1.2658231281E+01   -1.2618299913E+01   -1.2578619756E+01   -1.2539188459E+01
   -1.2500003602E+01   -1.2461062739E+01   -1.2422363816E+01   -1.2383904594E+01
   -1.2345682722E+01   -1.2307695960E+01   -1.2269942319E+01   -1.2232419662E+01
   -1.2195125717E+01   -1.2158058417E+01   -1.2121215839E+01   -1.2084595946E+01
   -1.2048196553E+01   -1.2012015729E+01   -1.1976051627E+01   -1.1940302304E+01
   -1.1904765670E+01   -1.1869439896E+01   -1.1834323219E+01   -1.1799413786E+01
   -1.1764709605E+01   -1.1730208923E+01   -1.1695910066E+01   -1.1661811266E+01
   -1.1627910639E+01   -1.1594206474E+01   -1.1560697194E+01   -1.1527381115E+01
   -1.1494256462E+01   -1.1461321544E+01   -1.1428574885E+01   -1.1396014879E+01
   -1.1363639870E+01   -1.1331448159E+01   -1.1299438378E+01   -1.1267608995E+01
   -1.1235958476E+01   -1.1204485097E+01   -1.1173187596E+01   -1.1142064513E+01
   -1.1111114391E+01   -1.1080335618E+01   -1.1049726883E+01   -1.1019286848E+01
   -1.0989014121E+01   -1.0958907225E+01   -1.0928964767E+01   -1.0899185534E+01
   -1.0869568200E+01   -1.0840111430E+01   -1.0810813728E+01   -1.0781674010E+01
   -1.0752691011E+01   -1.0723863466E+01   -1.0695189993E+01   -1.0666669407E+01
   -1.0638300576E+01   -1.0610082294E+01   -1.0582013330E+01   -1.0554092353E+01
   -1.0526318371E+01   -1.0498690235E+01   -1.0471206796E+01   -1.0443866792E+01
   -1.0416669144E+01   -1.0389612829E+01   -1.0362696751E+01   -1.0335919810E+01
   -1.0309280744E+01   -1.0282778677E+01   -1.0256412566E+01   -1.0230181364E+01
   -1.0204083962E+01   -1.0178119288E+01   -1.0152286455E+01   -1.0126584467E+01
   -1.0101012328E+01   -1.0075568926E+01   -1.0050253356E+01   -1.0025064721E+01
   -1.0000002074E+01   -9.9750644642E+00   -9.9502507920E+00   -9.9255602831E+00
   -9.9009920459E+00   -9.8765451748E+00   -9.8522187473E+00   -9.8280117361E+00
   -9.8039234201E+00   -9.7799529360E+00   -9.7560994206E+00   -9.7323619729E+00
   -9.7087396554E+00   -9.6852317652E+00   -9.6618374793E+00   -9.6385559743E+00
   -9.6153863798E+00   -9.5923278238E+00   -9.5693796287E+00   -9.5465410098E+00
   -9.5238111822E+00   -9.5011893130E+00   -9.4786745734E+00   -9.4562663182E+00
   -9.4339637992E+00   -9.4117662682E+00   -9.3896729370E+00   -9.3676829987E+00
   -9.3457958471E+00   -9.3240107690E+00   -9.3023270510E+00   -9.2807439566E+00
   -9.2592606806E+00   -9.2378766625E+00   -9.2165912222E+00   -9.1954036795E+00
   -9.1743133544E+00   -9.1533194302E+00   -9.1324213924E+00   -9.1116185942E+00
   -9.0909103871E+00   -9.0702961227E+00   -9.0497750491E+00   -9.0293466097E+00
   -9.0090102201E+00   -8.9887652622E+00   -8.9686111178E+00   -8.9485471061E+00
   -8.9285726116E+00   -8.9086871174E+00   -8.8888900341E+00   -8.8691807723E+00
   -8.8495587288E+00   -8.8300232145E+00   -8.8105737832E+00   -8.7912098728E+00
   -8.7719309215E+00   -8.7527363673E+00   -8.7336255613E+00   -8.7145980043E+00
   -8.6956532020E+00   -8.6767906187E+00   -8.6580097186E+00   -8.6393099415E+00
   -8.6206906803E+00   -8.6021515243E+00   -8.5836919625E+00   -8.5653114842E+00
   -8.5470095787E+00   -8.5287856570E+00   -8.5106392565E+00   -8.4925699348E+00
   -8.4745772049E+00   -8.4566605798E+00   -8.4388195703E+00   -8.4210535767E+00
   -8.4033622494E+00   -8.3857451242E+00   -8.3682017368E+00   -8.3507316229E+00
   -8.3333342793E+00   -8.3160092093E+00   -8.2987560481E+00   -8.2815743531E+00
   -8.2644636816E+00   -8.2474235910E+00   -8.2304535728E+00   -8.2135532127E+00
   -8.1967221375E+00   -8.1799599249E+00   -8.1632661531E+00   -8.1466404000E+00
   -8.1300821603E+00   -8.1135910814E+00   -8.0971667889E+00   -8.0808088804E+00
   -8.0645169537E+00   -8.0482906062E+00   -8.0321293436E+00   -8.0160328550E+00
   -8.0000007730E+00   -7.9840327138E+00   -7.9681282938E+00   -7.9522871293E+00
   -7.9365087434E+00   -7.9207928493E+00   -7.9051390932E+00   -7.8895471093E+00
   -7.8740165319E+00   -7.8585469952E+00   -7.8431380459E+00   -7.8277894043E+00
   -7.8125007373E+00   -7.7972716962E+00   -7.7821019322E+00   -7.7669910966E+00
   -7.7519387659E+00   -7.7369446514E+00   -7.7220084470E+00   -7.7071298204E+00
   -7.6923084390E+00   -7.6775439704E+00   -7.6628360267E+00   -7.6481842952E+00
   -7.6335885028E+00   -7.6190483325E+00   -7.6045634674E+00   -7.5901335905E+00
   -7.5757583555E+00   -7.5614374115E+00   -7.5471705236E+00   -7.5329573895E+00
   -7.5187977072E+00   -7.5046911743E+00   -7.4906374886E+00   -7.4766362577E+00
   -7.4626872799E+00   -7.4487902701E+00   -7.4349449402E+00   -7.4211510020E+00
   -7.4074081674E+00   -7.3937160965E+00   -7.3800745195E+00   -7.3664832023E+00
   -7.3529418702E+00   -7.3394502485E+00   -7.3260080625E+00   -7.3126150307E+00
   -7.2992708037E+00   -7.2859752017E+00   -7.2727279629E+00   -7.2595288253E+00
   -7.2463775270E+00   -7.2332738061E+00   -7.2202173556E+00   -7.2072079216E+00
   -7.1942452974E+00   -7.1813292334E+00   -7.1684594798E+00   -7.1556357870E+00
   -7.1428579052E+00   -7.1301255106E+00   -7.1174384261E+00   -7.1047964251E+00
   -7.0921992694E+00   -7.0796467209E+00   -7.0671385416E+00   -7.0546744809E+00
   -7.0422542439E+00   -7.0298776743E+00   -7.0175445451E+00   -7.0052546294E+00
   -6.9930077003E+00   -6.9808035307E+00   -6.9686418651E+00   -6.9565224551E+00
   -6.9444451376E+00   -6.9324096964E+00   -6.9204159149E+00   -6.9084635768E+00
   -6.8965524656E+00   -6.8846823279E+00   -6.8728529458E+00   -6.8610641559E+00
   -6.8493157519E+00   -6.8376075276E+00   -6.8259392765E+00   -6.8143107925E+00
   -6.8027218303E+00   -6.7911721876E+00   -6.7796617070E+00   -6.7681901918E+00
   -6.7567574455E+00   -6.7453632712E+00   -6.7340074722E+00   -6.7226898178E+00
   -6.7114101069E+00   -6.7001681942E+00   -6.6889638923E+00   -6.6777970135E+00
   -6.6666673703E+00   -6.6555747753E+00
  </PP_LOCAL>
 <PP_NONLOCAL>
   <PP_BETA.1
       type="real"
       size=" 602"
       columns="4"
       index="1"
       angular_momentum="0"
       cutoff_radius_index=" 328"
       cutoff_radius="    3.2700000000E+00" >
    0.0000000000E+00   -2.9660141572E-03   -5.9458856183E-03   -8.9535267693E-03
   -1.2002959465E-02   -1.5108368030E-02   -1.8284150196E-02   -2.1544965303E-02
   -2.4905779117E-02   -2.8381904633E-02   -3.1989038277E-02   -3.5743290905E-02
   -3.9661213101E-02   -4.3759814244E-02   -4.8056574904E-02   -5.2569452145E-02
   -5.7316877385E-02   -6.2317746478E-02   -6.7591401780E-02   -7.3157605970E-02
   -7.9036507503E-02   -8.5248597585E-02   -9.1814658665E-02   -9.8755704428E-02
   -1.0609291144E-01   -1.1384754269E-01   -1.2204086279E-01   -1.3069404587E-01
   -1.3982807597E-01   -1.4946364031E-01   -1.5962101615E-01   -1.7031995157E-01
   -1.8157954091E-01   -1.9341809648E-01   -2.0585301221E-01   -2.1890063073E-01
   -2.3257609922E-01   -2.4689323306E-01   -2.6186436865E-01   -2.7750022282E-01
   -2.9380975132E-01   -3.1080000794E-01   -3.2847600660E-01   -3.4684058701E-01
   -3.6589428474E-01   -3.8563520656E-01   -4.0605891206E-01   -4.2715830257E-01
   -4.4892351832E-01   -4.7134184996E-01   -4.9439763947E-01   -5.1807221863E-01
   -5.4234385281E-01   -5.6718767216E-01   -5.9257564813E-01   -6.1847657522E-01
   -6.4485603757E-01   -6.7167645029E-01   -6.9889703882E-01   -7.2647391370E-01