<UPF version="2.0.1">
  <PP_INFO>

 K_ONCV_PBE_FR-1.0.upf

 This pseudopotential file has been produced using the code
 ONCVPSP  (Optimized Norm-Conservinng Vanderbilt PSeudopotential)
 fully-relativistic version 2.1.1, 03/26/2014 by D. R. Hamann
 The code is available through a link at URL www.mat-simresearch.com.
 Documentation with the package provides a full description of the
 input data below.

 While it is not required under the terms of the GNU GPL, it is
 suggested that you cite D. R. Hamann, Phys. Rev. B 88, 085117 (2013)
 in any publication using these pseudopotentials.

 -----

 This pseudopotential was produced with the SG15 1.0 and/or 1.1
 parameter sets, the Schlipf-Gygi norm-conserving pseudopotential
 library. For details of the construction and testing of the
 pseudopotential please refer to:

 M. Schlipf, F. Gygi, Comp. Phys. Comm. 196, 36 (2015)
 http://dx.doi.org/10.1016/j.cpc.2015.05.011

 The above authors kindly ask that you include this reference in all
 publications associated to this pseudopotential.

 Please note this fully-relativistic version does not employ the
 above self-consistent procedure at the fully-relativistic level.

 -----

 This pseudopotential was produced by Peter Scherpelz for the purpose
 of performing GW calculations with spin-orbit-coupling. Please see
 the publication:

 P. Scherpelz, M. Govoni, I. Hamada, G. Galli; J. Chem. Theory Comput. (2016)
 http://dx.doi.org/10.1021/acs.jctc.6b00114

 If you use these pseudopotentials in your work, we also kindly ask
 that you cite the above publication.

 -----

 This work is licensed under the Creative Commons Attribution-ShareAlike 
 4.0 International License. To view a copy of this license, visit 
 http://creativecommons.org/licenses/by-sa/4.0/ or send a letter to 
 Creative Commons, PO Box 1866, Mountain View, CA 94042, USA.

 The SG15 library is Copyright 2015 The Regents of the University of
 California.  Further modifications of these files are Copyright 2016
 Peter Scherpelz.

    <PP_INPUTFILE>
# ATOM AND REFERENCE CONFIGURATION
# atsym  z    nc    nv    iexc   psfile
  K 19.00     3     3     4      upf
#
#   n    l    f        energy (Ha)
    1    0    2.00
    2    0    2.00
    2    1    6.00
    3    0    2.00
    3    1    6.00
    4    0    1.00
#
# PSEUDOPOTENTIAL AND OPTIMIZATION
# lmax
    2
#
#   l,   rc,     ep,   ncon, nbas, qcut
    0    2.17   -1.30    5    8    5.88
    1    2.33   -0.69    5    8    5.98
    2    2.36    0.21    5    8    6.69
#
# LOCAL POTENTIAL
# lloc, lpopt,  rc(5),   dvloc0
    4    5      2.07       0.00
#
# VANDERBILT-KLEINMAN-BYLANDER PROJECTORs
# l, nproj, debl
    0    2    1.2135
    1    2    1.7391
    2    2    1.7270
#
# MODEL CORE CHARGE
# icmod, fcfact
    0    0.00
#
# LOG DERIVATIVE ANALYSIS
# epsh1, epsh2, depsh
   -5.00    3.00    0.02
#
# OUTPUT GRID
# rlmax, drl
    6.00    0.01
#
# TEST CONFIGURATIONS
# ncnf
    0
# nvcnf
#   n    l    f
    </PP_INPUTFILE>
  </PP_INFO>
  <!--                               -->
  <!-- END OF HUMAN READABLE SECTION -->
  <!--                               -->
    <PP_HEADER
       generated="Generated using ONCVPSP code by D. R. Hamann"
       author="anonymous"
       date="150703"
       comment=""
       element="K "
       pseudo_type="NC"
       relativistic="full"
       is_ultrasoft="F"
       is_paw="F"
       is_coulomb="F"
       has_so="T"
       has_wfc="F"
       has_gipaw="F"
       core_correction="F"
       functional="PBE"
       z_valence="    9.00"
       total_psenergy="  -2.83773009822E+01"
       rho_cutoff="   6.01000000000E+00"
       l_max="2"
       l_local="-1"
       mesh_size="   602"
       number_of_wfc="0"
       number_of_proj="10"/>
 <PP_MESH>
   <PP_R type="real"  size=" 602" columns="8">
    0.0000    0.0100    0.0200    0.0300    0.0400    0.0500    0.0600    0.0700
    0.0800    0.0900    0.1000    0.1100    0.1200    0.1300    0.1400    0.1500
    0.1600    0.1700    0.1800    0.1900    0.2000    0.2100    0.2200    0.2300
    0.2400    0.2500    0.2600    0.2700    0.2800    0.2900    0.3000    0.3100
    0.3200    0.3300    0.3400    0.3500    0.3600    0.3700    0.3800    0.3900
    0.4000    0.4100    0.4200    0.4300    0.4400    0.4500    0.4600    0.4700
    0.4800    0.4900    0.5000    0.5100    0.5200    0.5300    0.5400    0.5500
    0.5600    0.5700    0.5800    0.5900    0.6000    0.6100    0.6200    0.6300
    0.6400    0.6500    0.6600    0.6700    0.6800    0.6900    0.7000    0.7100
    0.7200    0.7300    0.7400    0.7500    0.7600    0.7700    0.7800    0.7900
    0.8000    0.8100    0.8200    0.8300    0.8400    0.8500    0.8600    0.8700
    0.8800    0.8900    0.9000    0.9100    0.9200    0.9300    0.9400    0.9500
    0.9600    0.9700    0.9800    0.9900    1.0000    1.0100    1.0200    1.0300
    1.0400    1.0500    1.0600    1.0700    1.0800    1.0900    1.1000    1.1100
    1.1200    1.1300    1.1400    1.1500    1.1600    1.1700    1.1800    1.1900
    1.2000    1.2100    1.2200    1.2300    1.2400    1.2500    1.2600    1.2700
    1.2800    1.2900    1.3000    1.3100    1.3200    1.3300    1.3400    1.3500
    1.3600    1.3700    1.3800    1.3900    1.4000    1.4100    1.4200    1.4300
    1.4400    1.4500    1.4600    1.4700    1.4800    1.4900    1.5000    1.5100
    1.5200    1.5300    1.5400    1.5500    1.5600    1.5700    1.5800    1.5900
    1.6000    1.6100    1.6200    1.6300    1.6400    1.6500    1.6600    1.6700
    1.6800    1.6900    1.7000    1.7100    1.7200    1.7300    1.7400    1.7500
    1.7600    1.7700    1.7800    1.7900    1.8000    1.8100    1.8200    1.8300
    1.8400    1.8500    1.8600    1.8700    1.8800    1.8900    1.9000    1.9100
    1.9200    1.9300    1.9400    1.9500    1.9600    1.9700    1.9800    1.9900
    2.0000    2.0100    2.0200    2.0300    2.0400    2.0500    2.0600    2.0700
    2.0800    2.0900    2.1000    2.1100    2.1200    2.1300    2.1400    2.1500
    2.1600    2.1700    2.1800    2.1900    2.2000    2.2100    2.2200    2.2300
    2.2400    2.2500    2.2600    2.2700    2.2800    2.2900    2.3000    2.3100
    2.3200    2.3300    2.3400    2.3500    2.3600    2.3700    2.3800    2.3900
    2.4000    2.4100    2.4200    2.4300    2.4400    2.4500    2.4600    2.4700
    2.4800    2.4900    2.5000    2.5100    2.5200    2.5300    2.5400    2.5500
    2.5600    2.5700    2.5800    2.5900    2.6000    2.6100    2.6200    2.6300
    2.6400    2.6500    2.6600    2.6700    2.6800    2.6900    2.7000    2.7100
    2.7200    2.7300    2.7400    2.7500    2.7600    2.7700    2.7800    2.7900
    2.8000    2.8100    2.8200    2.8300    2.8400    2.8500    2.8600    2.8700
    2.8800    2.8900    2.9000    2.9100    2.9200    2.9300    2.9400    2.9500
    2.9600    2.9700    2.9800    2.9900    3.0000    3.0100    3.0200    3.0300
    3.0400    3.0500    3.0600    3.0700    3.0800    3.0900    3.1000    3.1100
    3.1200    3.1300    3.1400    3.1500    3.1600    3.1700    3.1800    3.1900
    3.2000    3.2100    3.2200    3.2300    3.2400    3.2500    3.2600    3.2700
    3.2800    3.2900    3.3000    3.3100    3.3200    3.3300    3.3400    3.3500
    3.3600    3.3700    3.3800    3.3900    3.4000    3.4100    3.4200    3.4300
    3.4400    3.4500    3.4600    3.4700    3.4800    3.4900    3.5000    3.5100
    3.5200    3.5300    3.5400    3.5500    3.5600    3.5700    3.5800    3.5900
    3.6000    3.6100    3.6200    3.6300    3.6400    3.6500    3.6600    3.6700
    3.6800    3.6900    3.7000    3.7100    3.7200    3.7300    3.7400    3.7500
    3.7600    3.7700    3.7800    3.7900    3.8000    3.8100    3.8200    3.8300
    3.8400    3.8500    3.8600    3.8700    3.8800    3.8900    3.9000    3.9100
    3.9200    3.9300    3.9400    3.9500    3.9600    3.9700    3.9800    3.9900
    4.0000    4.0100    4.0200    4.0300    4.0400    4.0500    4.0600    4.0700
    4.0800    4.0900    4.1000    4.1100    4.1200    4.1300    4.1400    4.1500
    4.1600    4.1700    4.1800    4.1900    4.2000    4.2100    4.2200    4.2300
    4.2400    4.2500    4.2600    4.2700    4.2800    4.2900    4.3000    4.3100
    4.3200    4.3300    4.3400    4.3500    4.3600    4.3700    4.3800    4.3900
    4.4000    4.4100    4.4200    4.4300    4.4400    4.4500    4.4600    4.4700
    4.4800    4.4900    4.5000    4.5100    4.5200    4.5300    4.5400    4.5500
    4.5600    4.5700    4.5800    4.5900    4.6000    4.6100    4.6200    4.6300
    4.6400    4.6500    4.6600    4.6700    4.6800    4.6900    4.7000    4.7100
    4.7200    4.7300    4.7400    4.7500    4.7600    4.7700    4.7800    4.7900
    4.8000    4.8100    4.8200    4.8300    4.8400    4.8500    4.8600    4.8700
    4.8800    4.8900    4.9000    4.9100    4.9200    4.9300    4.9400    4.9500
    4.9600    4.9700    4.9800    4.9900    5.0000    5.0100    5.0200    5.0300
    5.0400    5.0500    5.0600    5.0700    5.0800    5.0900    5.1000    5.1100
    5.1200    5.1300    5.1400    5.1500    5.1600    5.1700    5.1800    5.1900
    5.2000    5.2100    5.2200    5.2300    5.2400    5.2500    5.2600    5.2700
    5.2800    5.2900    5.3000    5.3100    5.3200    5.3300    5.3400    5.3500
    5.3600    5.3700    5.3800    5.3900    5.4000    5.4100    5.4200    5.4300
    5.4400    5.4500    5.4600    5.4700    5.4800    5.4900    5.5000    5.5100
    5.5200    5.5300    5.5400    5.5500    5.5600    5.5700    5.5800    5.5900
    5.6000    5.6100    5.6200    5.6300    5.6400    5.6500    5.6600    5.6700
    5.6800    5.6900    5.7000    5.7100    5.7200    5.7300    5.7400    5.7500
    5.7600    5.7700    5.7800    5.7900    5.8000    5.8100    5.8200    5.8300
    5.8400    5.8500    5.8600    5.8700    5.8800    5.8900    5.9000    5.9100
    5.9200    5.9300    5.9400    5.9500    5.9600    5.9700    5.9800    5.9900
    6.0000    6.0100
   </PP_R>
   <PP_RAB type="real"  size=" 602" columns="8">
    0.0100    0.0100    0.0100    0.0100    0.0100    0.0100    0.0100    0.0100
    0.0100    0.0100    0.0100    0.0100    0.0100    0.0100    0.0100    0.0100
    0.0100    0.0100    0.0100    0.0100    0.0100    0.0100    0.0100    0.0100
    0.0100    0.0100    0.0100    0.0100    0.0100    0.0100    0.0100    0.0100
    0.0100    0.0100    0.0100    0.0100    0.0100    0.0100    0.0100    0.0100
    0.0100    0.0100    0.0100    0.0100    0.0100    0.0100    0.0100    0.0100
    0.0100    0.0100    0.0100    0.0100    0.0100    0.0100    0.0100    0.0100
    0.0100    0.0100    0.0100    0.0100    0.0100    0.0100    0.0100    0.0100
    0.0100    0.0100    0.0100    0.0100    0.0100    0.0100    0.0100    0.0100
    0.0100    0.0100    0.0100    0.0100    0.0100    0.0100    0.0100    0.0100
    0.0100    0.0100    0.0100    0.0100    0.0100    0.0100    0.0100    0.0100
    0.0100    0.0100    0.0100    0.0100    0.0100    0.0100    0.0100    0.0100
    0.0100    0.0100    0.0100    0.0100    0.0100    0.0100    0.0100    0.0100
    0.0100    0.0100    0.0100    0.0100    0.0100    0.0100    0.0100    0.0100
    0.0100    0.0100    0.0100    0.0100    0.0100    0.0100    0.0100    0.0100
    0.0100    0.0100    0.0100    0.0100    0.0100    0.0100    0.0100    0.0100
    0.0100    0.0100    0.0100    0.0100    0.0100    0.0100    0.0100    0.0100
    0.0100    0.0100    0.0100    0.0100    0.0100    0.0100    0.0100    0.0100
    0.0100    0.0100    0.0100    0.0100    0.0100    0.0100    0.0100    0.0100
    0.0100    0.0100    0.0100    0.0100    0.0100    0.0100    0.0100    0.0100
    0.0100    0.0100    0.0100    0.0100    0.0100    0.0100    0.0100    0.0100
    0.0100    0.0100    0.0100    0.0100    0.0100    0.0100    0.0100    0.0100
    0.0100    0.0100    0.0100    0.0100    0.0100    0.0100    0.0100    0.0100
    0.0100    0.0100    0.0100    0.0100    0.0100    0.0100    0.0100    0.0100
    0.0100    0.0100    0.0100    0.0100    0.0100    0.0100    0.0100    0.0100
    0.0100    0.0100    0.0100    0.0100    0.0100    0.0100    0.0100    0.0100
    0.0100    0.0100    0.0100    0.0100    0.0100    0.0100    0.0100    0.0100
    0.0100    0.0100    0.0100    0.0100    0.0100    0.0100    0.0100    0.0100
    0.0100    0.0100    0.0100    0.0100    0.0100    0.0100    0.0100    0.0100
    0.0100    0.0100    0.0100    0.0100    0.0100    0.0100    0.0100    0.0100
    0.0100    0.0100    0.0100    0.0100    0.0100    0.0100    0.0100    0.0100
    0.0100    0.0100    0.0100    0.0100    0.0100    0.0100    0.0100    0.0100
    0.0100    0.0100    0.0100    0.0100    0.0100    0.0100    0.0100    0.0100
    0.0100    0.0100    0.0100    0.0100    0.0100    0.0100    0.0100    0.0100
    0.0100    0.0100    0.0100    0.0100    0.0100    0.0100    0.0100    0.0100
    0.0100    0.0100    0.0100    0.0100    0.0100    0.0100    0.0100    0.0100
    0.0100    0.0100    0.0100    0.0100    0.0100    0.0100    0.0100    0.0100
    0.0100    0.0100    0.0100    0.0100    0.0100    0.0100    0.0100    0.0100
    0.0100    0.0100    0.0100    0.0100    0.0100    0.0100    0.0100    0.0100
    0.0100    0.0100    0.0100    0.0100    0.0100    0.0100    0.0100    0.0100
    0.0100    0.0100    0.0100    0.0100    0.0100    0.0100    0.0100    0.0100
    0.0100    0.0100    0.0100    0.0100    0.0100    0.0100    0.0100    0.0100
    0.0100    0.0100    0.0100    0.0100    0.0100    0.0100    0.0100    0.0100
    0.0100    0.0100    0.0100    0.0100    0.0100    0.0100    0.0100    0.0100
    0.0100    0.0100    0.0100    0.0100    0.0100    0.0100    0.0100    0.0100
    0.0100    0.0100    0.0100    0.0100    0.0100    0.0100    0.0100    0.0100
    0.0100    0.0100    0.0100    0.0100    0.0100    0.0100    0.0100    0.0100
    0.0100    0.0100    0.0100    0.0100    0.0100    0.0100    0.0100    0.0100
    0.0100    0.0100    0.0100    0.0100    0.0100    0.0100    0.0100    0.0100
    0.0100    0.0100    0.0100    0.0100    0.0100    0.0100    0.0100    0.0100
    0.0100    0.0100    0.0100    0.0100    0.0100    0.0100    0.0100    0.0100
    0.0100    0.0100    0.0100    0.0100    0.0100    0.0100    0.0100    0.0100
    0.0100    0.0100    0.0100    0.0100    0.0100    0.0100    0.0100    0.0100
    0.0100    0.0100    0.0100    0.0100    0.0100    0.0100    0.0100    0.0100
    0.0100    0.0100    0.0100    0.0100    0.0100    0.0100    0.0100    0.0100
    0.0100    0.0100    0.0100    0.0100    0.0100    0.0100    0.0100    0.0100
    0.0100    0.0100    0.0100    0.0100    0.0100    0.0100    0.0100    0.0100
    0.0100    0.0100    0.0100    0.0100    0.0100    0.0100    0.0100    0.0100
    0.0100    0.0100    0.0100    0.0100    0.0100    0.0100    0.0100    0.0100
    0.0100    0.0100    0.0100    0.0100    0.0100    0.0100    0.0100    0.0100
    0.0100    0.0100    0.0100    0.0100    0.0100    0.0100    0.0100    0.0100
    0.0100    0.0100    0.0100    0.0100    0.0100    0.0100    0.0100    0.0100
    0.0100    0.0100    0.0100    0.0100    0.0100    0.0100    0.0100    0.0100
    0.0100    0.0100    0.0100    0.0100    0.0100    0.0100    0.0100    0.0100
    0.0100    0.0100    0.0100    0.0100    0.0100    0.0100    0.0100    0.0100
    0.0100    0.0100    0.0100    0.0100    0.0100    0.0100    0.0100    0.0100
    0.0100    0.0100    0.0100    0.0100    0.0100    0.0100    0.0100    0.0100
    0.0100    0.0100    0.0100    0.0100    0.0100    0.0100    0.0100    0.0100
    0.0100    0.0100    0.0100    0.0100    0.0100    0.0100    0.0100    0.0100
    0.0100    0.0100    0.0100    0.0100    0.0100    0.0100    0.0100    0.0100
    0.0100    0.0100    0.0100    0.0100    0.0100    0.0100    0.0100    0.0100
    0.0100    0.0100    0.0100    0.0100    0.0100    0.0100    0.0100    0.0100
    0.0100    0.0100    0.0100    0.0100    0.0100    0.0100    0.0100    0.0100
    0.0100    0.0100    0.0100    0.0100    0.0100    0.0100    0.0100    0.0100
    0.0100    0.0100    0.0100    0.0100    0.0100    0.0100    0.0100    0.0100
    0.0100    0.0100
   </PP_RAB>
 </PP_MESH>
  <PP_LOCAL type="real"  size=" 602" columns="4">
   -1.9917172100E+01   -1.9930352743E+01   -1.9974004162E+01   -2.0037236209E+01
   -2.0109158738E+01   -2.0179438598E+01   -2.0240291754E+01   -2.0287135815E+01
   -2.0318242991E+01   -2.0333937146E+01   -2.0335753585E+01   -2.0325769915E+01
   -2.0306158071E+01   -2.0278927820E+01   -2.0245807903E+01   -2.0208214005E+01
   -2.0167265334E+01   -2.0123823930E+01   -2.0078541300E+01   -2.0031903552E+01
   -1.9984270993E+01   -1.9935910726E+01   -1.9887022265E+01   -1.9837756964E+01
   -1.9788232236E+01   -1.9738541683E+01   -1.9688762071E+01   -1.9638957964E+01
   -1.9589184678E+01   -1.9539490092E+01   -1.9489915660E+01   -1.9440496953E+01
   -1.9391263883E+01   -1.9342240792E+01   -1.9293446483E+01   -1.9244894198E+01
   -1.9196591696E+01   -1.9148541273E+01   -1.9100739911E+01   -1.9053179422E+01
   -1.9005846628E+01   -1.8958723590E+01   -1.8911787857E+01   -1.8865012733E+01
   -1.8818367568E+01   -1.8771818060E+01   -1.8725326585E+01   -1.8678852530E+01
   -1.8632352645E+01   -1.8585781425E+01   -1.8539091508E+01   -1.8492234075E+01
   -1.8445159271E+01   -1.8397816666E+01   -1.8350155686E+01   -1.8302126095E+01
   -1.8253678424E+01   -1.8204764479E+01   -1.8155337714E+01   -1.8105353752E+01
   -1.8054770688E+01   -1.8003549529E+01   -1.7951654526E+01   -1.7899053333E+01
   -1.7845717460E+01   -1.7791622279E+01   -1.7736747126E+01   -1.7681075529E+01
   -1.7624595107E+01   -1.7567297515E+01   -1.7509178321E+01   -1.7450236987E+01
   -1.7390476606E+01   -1.7329903663E+01   -1.7268527811E+01   -1.7206361605E+01
   -1.7143420211E+01   -1.7079721134E+01   -1.7015283937E+01   -1.6950129916E+01
   -1.6884281836E+01   -1.6817763667E+01   -1.6750600327E+01   -1.6682817454E+01
   -1.6614441187E+01   -1.6545497978E+01   -1.6476014416E+01   -1.6406017077E+01
   -1.6335532397E+01   -1.6264586561E+01   -1.6193205408E+01   -1.6121414363E+01
   -1.6049238374E+01   -1.5976701878E+01   -1.5903828757E+01   -1.5830642310E+01
   -1.5757165260E+01   -1.5683419740E+01   -1.5609427302E+01   -1.5535208921E+01
   -1.5460785010E+01   -1.5386175457E+01   -1.5311399579E+01   -1.5236476189E+01
   -1.5161423616E+01   -1.5086259721E+01   -1.5011001926E+01   -1.4935667220E+01
   -1.4860272142E+01   -1.4784832862E+01   -1.4709365175E+01   -1.4633884552E+01
   -1.4558406042E+01   -1.4482944388E+01   -1.4407514015E+01   -1.4332129080E+01
   -1.4256803351E+01   -1.4181550330E+01   -1.4106383256E+01   -1.4031315089E+01
   -1.3956358442E+01   -1.3881525694E+01   -1.3806829013E+01   -1.3732280177E+01
   -1.3657890744E+01   -1.3583672075E+01   -1.3509635159E+01   -1.3435790740E+01
   -1.3362149389E+01   -1.3288721295E+01   -1.3215516403E+01   -1.3142544512E+01
   -1.3069814985E+01   -1.2997337004E+01   -1.2925119570E+01   -1.2853171240E+01
   -1.2781500469E+01   -1.2710115406E+01   -1.2639023861E+01   -1.2568233586E+01
   -1.2497751853E+01   -1.2427585832E+01   -1.2357742445E+01   -1.2288228245E+01
   -1.2219049787E+01   -1.2150213116E+01   -1.2081724266E+01   -1.2013588952E+01
   -1.1945812657E+01   -1.1878400786E+01   -1.1811358320E+01   -1.1744690322E+01
   -1.1678401380E+01   -1.1612496137E+01   -1.1546978899E+01   -1.1481853895E+01
   -1.1417125168E+01   -1.1352796571E+01   -1.1288871897E+01   -1.1225354663E+01
   -1.1162248426E+01   -1.1099556403E+01   -1.1037281925E+01   -1.0975427943E+01
   -1.0913997571E+01   -1.0852993525E+01   -1.0792418697E+01   -1.0732275598E+01
   -1.0672566907E+01   -1.0613294932E+01   -1.0554462153E+01   -1.0496070669E+01
   -1.0438122771E+01   -1.0380620336E+01   -1.0323565469E+01   -1.0266959817E+01
   -1.0210805269E+01   -1.0155103255E+01   -1.0099855415E+01   -1.0045062953E+01
   -9.9907272215E+00   -9.9368492019E+00   -9.8834299031E+00   -9.8304700887E+00
   -9.7779703562E+00   -9.7259312661E+00   -9.6743529222E+00   -9.6232357025E+00
   -9.5725791622E+00   -9.5223834139E+00   -9.4726475654E+00   -9.4233711880E+00
   -9.3745531546E+00   -9.3261923077E+00   -9.2782873572E+00   -9.2308362827E+00
   -9.1838376911E+00   -9.1372887638E+00   -9.0911875198E+00   -9.0455308709E+00
   -9.0003158348E+00   -8.9555392899E+00   -8.9111970987E+00   -8.8672860904E+00
   -8.8238012850E+00   -8.7807385412E+00   -8.7380929676E+00   -8.6958590871E+00
   -8.6540319093E+00   -8.6126057045E+00   -8.5715749199E+00   -8.5309341524E+00
   -8.4906780550E+00   -8.4508011440E+00   -8.4112983308E+00   -8.3721642950E+00
   -8.3333939246E+00   -8.2949822609E+00   -8.2569240743E+00   -8.2192146898E+00
   -8.1818491851E+00   -8.1448227315E+00   -8.1081308282E+00   -8.0717686711E+00
   -8.0357318667E+00   -8.0000160305E+00   -7.9646165412E+00   -7.9295293975E+00
   -7.8947502835E+00   -7.8602749950E+00   -7.8260997122E+00   -7.7922202743E+00
   -7.7586329038E+00   -7.7253339462E+00   -7.6923194484E+00   -7.6595859775E+00
   -7.6271299859E+00   -7.5949477571E+00   -7.5630360574E+00   -7.5313914272E+00
   -7.5000103921E+00   -7.4688898657E+00   -7.4380265293E+00   -7.4074171464E+00
   -7.3770587463E+00   -7.3469481412E+00   -7.3170822940E+00   -7.2874583593E+00
   -7.2580732836E+00   -7.2289242040E+00   -7.2000083982E+00   -7.1713229472E+00
   -7.1428651366E+00   -7.1146323676E+00   -7.0866218553E+00   -7.0588310102E+00
   -7.0312573571E+00   -7.0038982457E+00   -6.9767511884E+00   -6.9498138346E+00
   -6.9230836681E+00   -6.8965582827E+00   -6.8702354522E+00   -6.8441127953E+00
   -6.8181879676E+00   -6.7924588669E+00   -6.7669232473E+00   -6.7415788089E+00
   -6.7164235720E+00   -6.6914554245E+00   -6.6666721028E+00   -6.6420717403E+00
   -6.6176523255E+00   -6.5934117260E+00   -6.5693480775E+00   -6.5454594997E+00
   -6.5217439951E+00   -6.4981996848E+00   -6.4748248182E+00   -6.4516175356E+00
   -6.4285759308E+00   -6.4056983787E+00   -6.3829831341E+00   -6.3604283306E+00
   -6.3380323875E+00   -6.3157936654E+00   -6.2937104334E+00   -6.2717810496E+00
   -6.2500040072E+00   -6.2283777158E+00   -6.2069004640E+00   -6.1855708699E+00
   -6.1643874212E+00   -6.1433485272E+00   -6.1224527307E+00   -6.1016986514E+00
   -6.0810848404E+00   -6.0606097430E+00   -6.0402721068E+00   -6.0200705571E+00
   -6.0000036523E+00   -5.9800700490E+00   -5.9602685032E+00   -5.9405977040E+00
   -5.9210562274E+00   -5.9016429182E+00   -5.8823565388E+00   -5.8631958051E+00
   -5.8441594258E+00   -5.8252463005E+00   -5.8064552376E+00   -5.7877849727E+00
   -5.7692343676E+00   -5.7508023376E+00   -5.7324877468E+00   -5.7142893575E+00
   -5.6962061634E+00   -5.6782370980E+00   -5.6603810669E+00   -5.6426368993E+00
   -5.6250036655E+00   -5.6074803327E+00   -5.5900658355E+00   -5.5727591047E+00
   -5.5555592375E+00   -5.5384652496E+00   -5.5214761084E+00   -5.5045908301E+00
   -5.4878085415E+00   -5.4711283040E+00   -5.4545491220E+00   -5.4380700811E+00
   -5.4216903407E+00   -5.4054090057E+00   -5.3892251209E+00   -5.3731378263E+00
   -5.3571463169E+00   -5.3412497393E+00   -5.3254471818E+00   -5.3097378244E+00
   -5.2941209008E+00   -5.2785955979E+00   -5.2631610497E+00   -5.2478164632E+00
   -5.2325611140E+00   -5.2173942269E+00   -5.2023149850E+00   -5.1873226094E+00
   -5.1724164205E+00   -5.1575956792E+00   -5.1428596202E+00   -5.1282074677E+00
   -5.1136385886E+00   -5.0991522782E+00   -5.0847478258E+00   -5.0704244480E+00
   -5.0561815599E+00   -5.0420184896E+00   -5.0279345657E+00   -5.0139290411E+00
   -5.0000013271E+00   -4.9861508007E+00   -4.9723768215E+00   -4.9586787015E+00
   -4.9450558189E+00   -4.9315076071E+00   -4.9180334556E+00   -4.9046327384E+00
   -4.8913047923E+00   -4.8780491074E+00   -4.8648651016E+00   -4.8517521926E+00
   -4.8387097324E+00   -4.8257372044E+00   -4.8128340741E+00   -4.7999997863E+00
   -4.7872337589E+00   -4.7745354136E+00   -4.7619042787E+00   -4.7493398250E+00
   -4.7368415232E+00   -4.7244087779E+00   -4.7120411287E+00   -4.6997380873E+00
   -4.6874991488E+00   -4.6753237887E+00   -4.6632114668E+00   -4.6511617624E+00
   -4.6391741943E+00   -4.6272482812E+00   -4.6153834924E+00   -4.6035793796E+00
   -4.5918355141E+00   -4.5801514369E+00   -4.5685266892E+00   -4.5569607400E+00
   -4.5454532188E+00   -4.5340036919E+00   -4.5226117216E+00   -4.5112768534E+00
   -4.4999986132E+00   -4.4887766417E+00   -4.4776105220E+00   -4.4664998369E+00
   -4.4554441365E+00   -4.4444430032E+00   -4.4334960807E+00   -4.4226029714E+00
   -4.4117632777E+00   -4.4009765587E+00   -4.3902424412E+00   -4.3795605755E+00
   -4.3689305825E+00   -4.3583520830E+00   -4.3478246489E+00   -4.3373479404E+00
   -4.3269216177E+00   -4.3165453192E+00   -4.3062186837E+00   -4.2959412991E+00
   -4.2857128482E+00   -4.2755330047E+00   -4.2654014241E+00   -4.2553177617E+00
   -4.2452816250E+00   -4.2352927093E+00   -4.2253507053E+00   -4.2154552845E+00
   -4.2056061183E+00   -4.1958028364E+00   -4.1860451376E+00   -4.1763327326E+00
   -4.1666653082E+00   -4.1570425512E+00   -4.1474641164E+00   -4.1379296971E+00
   -4.1284390271E+00   -4.1189918079E+00   -4.1095877407E+00   -4.1002265084E+00
   -4.0909077908E+00   -4.0816313473E+00   -4.0723968930E+00   -4.0632041433E+00
   -4.0540528117E+00   -4.0449425573E+00   -4.0358731669E+00   -4.0268443690E+00
   -4.0178558921E+00   -4.0089074648E+00   -3.9999987738E+00   -3.9911295803E+00
   -3.9822996434E+00   -3.9735087043E+00   -3.9647565043E+00   -3.9560427662E+00
   -3.9473672130E+00   -3.9387296381E+00   -3.9301297948E+00   -3.9215674362E+00
   -3.9130423158E+00   -3.9045541385E+00   -3.8961027071E+00   -3.8876877947E+00
   -3.8793091661E+00   -3.8709665861E+00   -3.8626598007E+00   -3.8543885598E+00
   -3.8461526762E+00   -3.8379519256E+00   -3.8297860838E+00   -3.8216549264E+00
   -3.8135581889E+00   -3.8054956809E+00   -3.7974672026E+00   -3.7894725402E+00
   -3.7815114798E+00   -3.7735838029E+00   -3.7656892535E+00   -3.7578276753E+00
   -3.7499988646E+00   -3.7422026175E+00   -3.7344387300E+00   -3.7267069792E+00
   -3.7190071509E+00   -3.7113390836E+00   -3.7037025828E+00   -3.6960974542E+00
   -3.6885235035E+00   -3.6809805071E+00   -3.6734682832E+00   -3.6659866682E+00
   -3.6585354767E+00   -3.6511145235E+00   -3.6437236233E+00   -3.6363625556E+00
   -3.6290311619E+00   -3.6217292798E+00   -3.6144567328E+00   -3.6072133442E+00
   -3.5999989373E+00   -3.5928132977E+00   -3.5856562822E+00   -3.5785277328E+00
   -3.5714274812E+00   -3.5643553589E+00   -3.5573111976E+00   -3.5502947920E+00
   -3.5433060059E+00   -3.5363446892E+00   -3.5294106813E+00   -3.5225038216E+00
   -3.5156239495E+00   -3.5087708720E+00   -3.5019444523E+00   -3.4951445512E+00
   -3.4883710154E+00   -3.4816236918E+00   -3.4749024274E+00   -3.4682070438E+00
   -3.4615373970E+00   -3.4548933610E+00   -3.4482747898E+00   -3.4416815374E+00
   -3.4351134580E+00   -3.4285703905E+00   -3.4220521770E+00   -3.4155587074E+00
   -3.4090898425E+00   -3.4026454432E+00   -3.3962253703E+00   -3.3898294828E+00
   -3.3834576029E+00   -3.3771096386E+00   -3.3707854570E+00   -3.3644849255E+00
   -3.3582079115E+00   -3.3519542822E+00   -3.3457238769E+00   -3.3395165811E+00
   -3.3333322821E+00   -3.3271708534E+00   -3.3210321686E+00   -3.3149161012E+00
   -3.3088225155E+00   -3.3027512636E+00   -3.2967022566E+00   -3.2906753740E+00
   -3.2846704950E+00   -3.2786874991E+00   -3.2727262657E+00   -3.2667866463E+00
   -3.2608685397E+00   -3.2549718432E+00   -3.2490964417E+00   -3.2432422203E+00
   -3.2374090639E+00   -3.2315968540E+00   -3.2258054446E+00   -3.2200347609E+00
   -3.2142846935E+00   -3.2085551326E+00   -3.2028459686E+00   -3.1971570920E+00
   -3.1914883773E+00   -3.1858397101E+00   -3.1802110083E+00   -3.1746021676E+00
   -3.1690130832E+00   -3.1634436508E+00   -3.1578937658E+00   -3.1523632995E+00
   -3.1468521614E+00   -3.1413602650E+00   -3.1358875106E+00   -3.1304337986E+00
   -3.1249990294E+00   -3.1195831033E+00   -3.1141858916E+00   -3.1088073200E+00
   -3.1034473008E+00   -3.0981057390E+00   -3.0927825395E+00   -3.0874776074E+00
   -3.0821908477E+00   -3.0769221344E+00   -3.0716714027E+00   -3.0664385665E+00
   -3.0612235352E+00   -3.0560262183E+00   -3.0508465251E+00   -3.0456843651E+00
   -3.0405396178E+00   -3.0354122214E+00   -3.0303020942E+00   -3.0252091497E+00
   -3.0201333018E+00   -3.0150744639E+00   -3.0100325498E+00   -3.0050074470E+00
   -2.9999990904E+00   -2.9950074054E+00
  </PP_LOCAL>
 <PP_NONLOCAL>
   <PP_BETA.1
       type="real"
       size=" 602"
       columns="4"
       index="1"
       angular_momentum="0"
       cutoff_radius_index=" 240"
       cutoff_radius="    2.3900000000E+00" >
    0.0000000000E+00   -2.6565285776E-02   -5.2954348720E-02   -7.8991967870E-02
   -1.0450492008E-01   -1.2932296415E-01   -1.5327980735E-01   -1.7621404859E-01
   -1.9797009268E-01   -2.1839903032E-01   -2.3735947854E-01   -2.5471837672E-01
   -2.7035173351E-01   -2.8414532018E-01   -2.9599530624E-01   -3.0580883408E-01
   -3.1350452839E-01   -3.1901293857E-01   -3.2227691025E-01   -3.2325188485E-01
   -3.2190612491E-01   -3.1822086408E-01   -3.1219038104E-01   -3.0382199654E-01
   -2.9313599448E-01   -2.8016546675E-01   -2.6495608323E-01   -2.4756578864E-01
   -2.2806442737E-01   -2.0653329956E-01   -1.8306465041E-01   -1.5776109718E-01
   -1.3073499455E-01   -1.0210774234E-01   -7.2009053280E-02   -4.0576148110E-02
   -7.9529483849E-03    2.5710822410E-02    6.0260515350E-02    9.5537486130E-02
    1.3138005616E-01    1.6762447097E-01    2.0410586934E-01    2.4065926380E-01
    2.7712051597E-01    3.1332730386E-01    3.4912006795E-01    3.8434294567E-01
    4.1884471139E-01    4.5247962079E-01    4.8510824698E-01    5.1659826424E-01
    5.4682532923E-01    5.7567360266E-01    6.0303651152E-01    6.2881738247E-01
    6.5292977528E-01    6.7529827389E-01    6.9585849134E-01    7.1455780263E-01
    7.3135526106E-01    7.4622198943E-01    7.5914128448E-01    7.7010843002E-01
    7.7913103244E-01    7.8622862024E-01    7.9143247104E-01    7.9478553920E-01
    7.9634199122E-01    7.9616681019E-01    7.9433534474E-01    7.9093284404E-01