<UPF version="2.0.1">
  <PP_INFO>

 Kr_ONCV_PBE_FR-1.0.upf

 This pseudopotential file has been produced using the code
 ONCVPSP  (Optimized Norm-Conservinng Vanderbilt PSeudopotential)
 fully-relativistic version 2.1.1, 03/26/2014 by D. R. Hamann
 The code is available through a link at URL www.mat-simresearch.com.
 Documentation with the package provides a full description of the
 input data below.

 While it is not required under the terms of the GNU GPL, it is
 suggested that you cite D. R. Hamann, Phys. Rev. B 88, 085117 (2013)
 in any publication using these pseudopotentials.

 -----

 This pseudopotential was produced with the SG15 1.0 and/or 1.1
 parameter sets, the Schlipf-Gygi norm-conserving pseudopotential
 library. For details of the construction and testing of the
 pseudopotential please refer to:

 M. Schlipf, F. Gygi, Comp. Phys. Comm. 196, 36 (2015)
 http://dx.doi.org/10.1016/j.cpc.2015.05.011

 The above authors kindly ask that you include this reference in all
 publications associated to this pseudopotential.

 Please note this fully-relativistic version does not employ the
 above self-consistent procedure at the fully-relativistic level.

 -----

 This pseudopotential was produced by Peter Scherpelz for the purpose
 of performing GW calculations with spin-orbit-coupling. Please see
 the publication:

 P. Scherpelz, M. Govoni, I. Hamada, G. Galli; J. Chem. Theory Comput. (2016)
 http://dx.doi.org/10.1021/acs.jctc.6b00114

 If you use these pseudopotentials in your work, we also kindly ask
 that you cite the above publication.

 -----

 This work is licensed under the Creative Commons Attribution-ShareAlike 
 4.0 International License. To view a copy of this license, visit 
 http://creativecommons.org/licenses/by-sa/4.0/ or send a letter to 
 Creative Commons, PO Box 1866, Mountain View, CA 94042, USA.

 The SG15 library is Copyright 2015 The Regents of the University of
 California.  Further modifications of these files are Copyright 2016
 Peter Scherpelz.

    <PP_INPUTFILE>
# ATOM AND REFERENCE CONFIGURATION
# atsym  z    nc    nv    iexc   psfile
  Kr 36.00     6     2     4      upf
#
#   n    l    f        energy (Ha)
    1    0    2.00
    2    0    2.00
    2    1    6.00
    3    0    2.00
    3    1    6.00
    3    2   10.00
    4    0    2.00
    4    1    6.00
#
# PSEUDOPOTENTIAL AND OPTIMIZATION
# lmax
    2
#
#   l,   rc,     ep,   ncon, nbas, qcut
    0    2.80   -0.85    5    8    4.94
    1    2.87   -0.33    5    8    4.26
    2    2.87    0.12    5    8    4.58
#
# LOCAL POTENTIAL
# lloc, lpopt,  rc(5),   dvloc0
    4    5      2.46       0.00
#
# VANDERBILT-KLEINMAN-BYLANDER PROJECTORs
# l, nproj, debl
    0    2    1.4234
    1    2    1.5142
    2    2    1.3198
#
# MODEL CORE CHARGE
# icmod, fcfact
    0    0.00
#
# LOG DERIVATIVE ANALYSIS
# epsh1, epsh2, depsh
   -5.00    3.00    0.02
#
# OUTPUT GRID
# rlmax, drl
    6.00    0.01
#
# TEST CONFIGURATIONS
# ncnf
    0
# nvcnf
#   n    l    f
    </PP_INPUTFILE>
  </PP_INFO>
  <!--                               -->
  <!-- END OF HUMAN READABLE SECTION -->
  <!--                               -->
    <PP_HEADER
       generated="Generated using ONCVPSP code by D. R. Hamann"
       author="anonymous"
       date="150703"
       comment=""
       element="Kr"
       pseudo_type="NC"
       relativistic="full"
       is_ultrasoft="F"
       is_paw="F"
       is_coulomb="F"
       has_so="T"
       has_wfc="F"
       has_gipaw="F"
       core_correction="F"
       functional="PBE"
       z_valence="    8.00"
       total_psenergy="  -1.85916518530E+01"
       rho_cutoff="   6.01000000000E+00"
       l_max="2"
       l_local="-1"
       mesh_size="   602"
       number_of_wfc="0"
       number_of_proj="10"/>
 <PP_MESH>
   <PP_R type="real"  size=" 602" columns="8">
    0.0000    0.0100    0.0200    0.0300    0.0400    0.0500    0.0600    0.0700
    0.0800    0.0900    0.1000    0.1100    0.1200    0.1300    0.1400    0.1500
    0.1600    0.1700    0.1800    0.1900    0.2000    0.2100    0.2200    0.2300
    0.2400    0.2500    0.2600    0.2700    0.2800    0.2900    0.3000    0.3100
    0.3200    0.3300    0.3400    0.3500    0.3600    0.3700    0.3800    0.3900
    0.4000    0.4100    0.4200    0.4300    0.4400    0.4500    0.4600    0.4700
    0.4800    0.4900    0.5000    0.5100    0.5200    0.5300    0.5400    0.5500
    0.5600    0.5700    0.5800    0.5900    0.6000    0.6100    0.6200    0.6300
    0.6400    0.6500    0.6600    0.6700    0.6800    0.6900    0.7000    0.7100
    0.7200    0.7300    0.7400    0.7500    0.7600    0.7700    0.7800    0.7900
    0.8000    0.8100    0.8200    0.8300    0.8400    0.8500    0.8600    0.8700
    0.8800    0.8900    0.9000    0.9100    0.9200    0.9300    0.9400    0.9500
    0.9600    0.9700    0.9800    0.9900    1.0000    1.0100    1.0200    1.0300
    1.0400    1.0500    1.0600    1.0700    1.0800    1.0900    1.1000    1.1100
    1.1200    1.1300    1.1400    1.1500    1.1600    1.1700    1.1800    1.1900
    1.2000    1.2100    1.2200    1.2300    1.2400    1.2500    1.2600    1.2700
    1.2800    1.2900    1.3000    1.3100    1.3200    1.3300    1.3400    1.3500
    1.3600    1.3700    1.3800    1.3900    1.4000    1.4100    1.4200    1.4300
    1.4400    1.4500    1.4600    1.4700    1.4800    1.4900    1.5000    1.5100
    1.5200    1.5300    1.5400    1.5500    1.5600    1.5700    1.5800    1.5900
    1.6000    1.6100    1.6200    1.6300    1.6400    1.6500    1.6600    1.6700
    1.6800    1.6900    1.7000    1.7100    1.7200    1.7300    1.7400    1.7500
    1.7600    1.7700    1.7800    1.7900    1.8000    1.8100    1.8200    1.8300
    1.8400    1.8500    1.8600    1.8700    1.8800    1.8900    1.9000    1.9100
    1.9200    1.9300    1.9400    1.9500    1.9600    1.9700    1.9800    1.9900
    2.0000    2.0100    2.0200    2.0300    2.0400    2.0500    2.0600    2.0700
    2.0800    2.0900    2.1000    2.1100    2.1200    2.1300    2.1400    2.1500
    2.1600    2.1700    2.1800    2.1900    2.2000    2.2100    2.2200    2.2300
    2.2400    2.2500    2.2600    2.2700    2.2800    2.2900    2.3000    2.3100
    2.3200    2.3300    2.3400    2.3500    2.3600    2.3700    2.3800    2.3900
    2.4000    2.4100    2.4200    2.4300    2.4400    2.4500    2.4600    2.4700
    2.4800    2.4900    2.5000    2.5100    2.5200    2.5300    2.5400    2.5500
    2.5600    2.5700    2.5800    2.5900    2.6000    2.6100    2.6200    2.6300
    2.6400    2.6500    2.6600    2.6700    2.6800    2.6900    2.7000    2.7100
    2.7200    2.7300    2.7400    2.7500    2.7600    2.7700    2.7800    2.7900
    2.8000    2.8100    2.8200    2.8300    2.8400    2.8500    2.8600    2.8700
    2.8800    2.8900    2.9000    2.9100    2.9200    2.9300    2.9400    2.9500
    2.9600    2.9700    2.9800    2.9900    3.0000    3.0100    3.0200    3.0300
    3.0400    3.0500    3.0600    3.0700    3.0800    3.0900    3.1000    3.1100
    3.1200    3.1300    3.1400    3.1500    3.1600    3.1700    3.1800    3.1900
    3.2000    3.2100    3.2200    3.2300    3.2400    3.2500    3.2600    3.2700
    3.2800    3.2900    3.3000    3.3100    3.3200    3.3300    3.3400    3.3500
    3.3600    3.3700    3.3800    3.3900    3.4000    3.4100    3.4200    3.4300
    3.4400    3.4500    3.4600    3.4700    3.4800    3.4900    3.5000    3.5100
    3.5200    3.5300    3.5400    3.5500    3.5600    3.5700    3.5800    3.5900
    3.6000    3.6100    3.6200    3.6300    3.6400    3.6500    3.6600    3.6700
    3.6800    3.6900    3.7000    3.7100    3.7200    3.7300    3.7400    3.7500
    3.7600    3.7700    3.7800    3.7900    3.8000    3.8100    3.8200    3.8300
    3.8400    3.8500    3.8600    3.8700    3.8800    3.8900    3.9000    3.9100
    3.9200    3.9300    3.9400    3.9500    3.9600    3.9700    3.9800    3.9900
    4.0000    4.0100    4.0200    4.0300    4.0400    4.0500    4.0600    4.0700
    4.0800    4.0900    4.1000    4.1100    4.1200    4.1300    4.1400    4.1500
    4.1600    4.1700    4.1800    4.1900    4.2000    4.2100    4.2200    4.2300
    4.2400    4.2500    4.2600    4.2700    4.2800    4.2900    4.3000    4.3100
    4.3200    4.3300    4.3400    4.3500    4.3600    4.3700    4.3800    4.3900
    4.4000    4.4100    4.4200    4.4300    4.4400    4.4500    4.4600    4.4700
    4.4800    4.4900    4.5000    4.5100    4.5200    4.5300    4.5400    4.5500
    4.5600    4.5700    4.5800    4.5900    4.6000    4.6100    4.6200    4.6300
    4.6400    4.6500    4.6600    4.6700    4.6800    4.6900    4.7000    4.7100
    4.7200    4.7300    4.7400    4.7500    4.7600    4.7700    4.7800    4.7900
    4.8000    4.8100    4.8200    4.8300    4.8400    4.8500    4.8600    4.8700
    4.8800    4.8900    4.9000    4.9100    4.9200    4.9300    4.9400    4.9500
    4.9600    4.9700    4.9800    4.9900    5.0000    5.0100    5.0200    5.0300
    5.0400    5.0500    5.0600    5.0700    5.0800    5.0900    5.1000    5.1100
    5.1200    5.1300    5.1400    5.1500    5.1600    5.1700    5.1800    5.1900
    5.2000    5.2100    5.2200    5.2300    5.2400    5.2500    5.2600    5.2700
    5.2800    5.2900    5.3000    5.3100    5.3200    5.3300    5.3400    5.3500
    5.3600    5.3700    5.3800    5.3900    5.4000    5.4100    5.4200    5.4300
    5.4400    5.4500    5.4600    5.4700    5.4800    5.4900    5.5000    5.5100
    5.5200    5.5300    5.5400    5.5500    5.5600    5.5700    5.5800    5.5900
    5.6000    5.6100    5.6200    5.6300    5.6400    5.6500    5.6600    5.6700
    5.6800    5.6900    5.7000    5.7100    5.7200    5.7300    5.7400    5.7500
    5.7600    5.7700    5.7800    5.7900    5.8000    5.8100    5.8200    5.8300
    5.8400    5.8500    5.8600    5.8700    5.8800    5.8900    5.9000    5.9100
    5.9200    5.9300    5.9400    5.9500    5.9600    5.9700    5.9800    5.9900
    6.0000    6.0100
   </PP_R>
   <PP_RAB type="real"  size=" 602" columns="8">
    0.0100    0.0100    0.0100    0.0100    0.0100    0.0100    0.0100    0.0100
    0.0100    0.0100    0.0100    0.0100    0.0100    0.0100    0.0100    0.0100
    0.0100    0.0100    0.0100    0.0100    0.0100    0.0100    0.0100    0.0100
    0.0100    0.0100    0.0100    0.0100    0.0100    0.0100    0.0100    0.0100
    0.0100    0.0100    0.0100    0.0100    0.0100    0.0100    0.0100    0.0100
    0.0100    0.0100    0.0100    0.0100    0.0100    0.0100    0.0100    0.0100
    0.0100    0.0100    0.0100    0.0100    0.0100    0.0100    0.0100    0.0100
    0.0100    0.0100    0.0100    0.0100    0.0100    0.0100    0.0100    0.0100
    0.0100    0.0100    0.0100    0.0100    0.0100    0.0100    0.0100    0.0100
    0.0100    0.0100    0.0100    0.0100    0.0100    0.0100    0.0100    0.0100
    0.0100    0.0100    0.0100    0.0100    0.0100    0.0100    0.0100    0.0100
    0.0100    0.0100    0.0100    0.0100    0.0100    0.0100    0.0100    0.0100
    0.0100    0.0100    0.0100    0.0100    0.0100    0.0100    0.0100    0.0100
    0.0100    0.0100    0.0100    0.0100    0.0100    0.0100    0.0100    0.0100
    0.0100    0.0100    0.0100    0.0100    0.0100    0.0100    0.0100    0.0100
    0.0100    0.0100    0.0100    0.0100    0.0100    0.0100    0.0100    0.0100
    0.0100    0.0100    0.0100    0.0100    0.0100    0.0100    0.0100    0.0100
    0.0100    0.0100    0.0100    0.0100    0.0100    0.0100    0.0100    0.0100
    0.0100    0.0100    0.0100    0.0100    0.0100    0.0100    0.0100    0.0100
    0.0100    0.0100    0.0100    0.0100    0.0100    0.0100    0.0100    0.0100
    0.0100    0.0100    0.0100    0.0100    0.0100    0.0100    0.0100    0.0100
    0.0100    0.0100    0.0100    0.0100    0.0100    0.0100    0.0100    0.0100
    0.0100    0.0100    0.0100    0.0100    0.0100    0.0100    0.0100    0.0100
    0.0100    0.0100    0.0100    0.0100    0.0100    0.0100    0.0100    0.0100
    0.0100    0.0100    0.0100    0.0100    0.0100    0.0100    0.0100    0.0100
    0.0100    0.0100    0.0100    0.0100    0.0100    0.0100    0.0100    0.0100
    0.0100    0.0100    0.0100    0.0100    0.0100    0.0100    0.0100    0.0100
    0.0100    0.0100    0.0100    0.0100    0.0100    0.0100    0.0100    0.0100
    0.0100    0.0100    0.0100    0.0100    0.0100    0.0100    0.0100    0.0100
    0.0100    0.0100    0.0100    0.0100    0.0100    0.0100    0.0100    0.0100
    0.0100    0.0100    0.0100    0.0100    0.0100    0.0100    0.0100    0.0100
    0.0100    0.0100    0.0100    0.0100    0.0100    0.0100    0.0100    0.0100
    0.0100    0.0100    0.0100    0.0100    0.0100    0.0100    0.0100    0.0100
    0.0100    0.0100    0.0100    0.0100    0.0100    0.0100    0.0100    0.0100
    0.0100    0.0100    0.0100    0.0100    0.0100    0.0100    0.0100    0.0100
    0.0100    0.0100    0.0100    0.0100    0.0100    0.0100    0.0100    0.0100
    0.0100    0.0100    0.0100    0.0100    0.0100    0.0100    0.0100    0.0100
    0.0100    0.0100    0.0100    0.0100    0.0100    0.0100    0.0100    0.0100
    0.0100    0.0100    0.0100    0.0100    0.0100    0.0100    0.0100    0.0100
    0.0100    0.0100    0.0100    0.0100    0.0100    0.0100    0.0100    0.0100
    0.0100    0.0100    0.0100    0.0100    0.0100    0.0100    0.0100    0.0100
    0.0100    0.0100    0.0100    0.0100    0.0100    0.0100    0.0100    0.0100
    0.0100    0.0100    0.0100    0.0100    0.0100    0.0100    0.0100    0.0100
    0.0100    0.0100    0.0100    0.0100    0.0100    0.0100    0.0100    0.0100
    0.0100    0.0100    0.0100    0.0100    0.0100    0.0100    0.0100    0.0100
    0.0100    0.0100    0.0100    0.0100    0.0100    0.0100    0.0100    0.0100
    0.0100    0.0100    0.0100    0.0100    0.0100    0.0100    0.0100    0.0100
    0.0100    0.0100    0.0100    0.0100    0.0100    0.0100    0.0100    0.0100
    0.0100    0.0100    0.0100    0.0100    0.0100    0.0100    0.0100    0.0100
    0.0100    0.0100    0.0100    0.0100    0.0100    0.0100    0.0100    0.0100
    0.0100    0.0100    0.0100    0.0100    0.0100    0.0100    0.0100    0.0100
    0.0100    0.0100    0.0100    0.0100    0.0100    0.0100    0.0100    0.0100
    0.0100    0.0100    0.0100    0.0100    0.0100    0.0100    0.0100    0.0100
    0.0100    0.0100    0.0100    0.0100    0.0100    0.0100    0.0100    0.0100
    0.0100    0.0100    0.0100    0.0100    0.0100    0.0100    0.0100    0.0100
    0.0100    0.0100    0.0100    0.0100    0.0100    0.0100    0.0100    0.0100
    0.0100    0.0100    0.0100    0.0100    0.0100    0.0100    0.0100    0.0100
    0.0100    0.0100    0.0100    0.0100    0.0100    0.0100    0.0100    0.0100
    0.0100    0.0100    0.0100    0.0100    0.0100    0.0100    0.0100    0.0100
    0.0100    0.0100    0.0100    0.0100    0.0100    0.0100    0.0100    0.0100
    0.0100    0.0100    0.0100    0.0100    0.0100    0.0100    0.0100    0.0100
    0.0100    0.0100    0.0100    0.0100    0.0100    0.0100    0.0100    0.0100
    0.0100    0.0100    0.0100    0.0100    0.0100    0.0100    0.0100    0.0100
    0.0100    0.0100    0.0100    0.0100    0.0100    0.0100    0.0100    0.0100
    0.0100    0.0100    0.0100    0.0100    0.0100    0.0100    0.0100    0.0100
    0.0100    0.0100    0.0100    0.0100    0.0100    0.0100    0.0100    0.0100
    0.0100    0.0100    0.0100    0.0100    0.0100    0.0100    0.0100    0.0100
    0.0100    0.0100    0.0100    0.0100    0.0100    0.0100    0.0100    0.0100
    0.0100    0.0100    0.0100    0.0100    0.0100    0.0100    0.0100    0.0100
    0.0100    0.0100    0.0100    0.0100    0.0100    0.0100    0.0100    0.0100
    0.0100    0.0100    0.0100    0.0100    0.0100    0.0100    0.0100    0.0100
    0.0100    0.0100    0.0100    0.0100    0.0100    0.0100    0.0100    0.0100
    0.0100    0.0100    0.0100    0.0100    0.0100    0.0100    0.0100    0.0100
    0.0100    0.0100    0.0100    0.0100    0.0100    0.0100    0.0100    0.0100
    0.0100    0.0100    0.0100    0.0100    0.0100    0.0100    0.0100    0.0100
    0.0100    0.0100
   </PP_RAB>
 </PP_MESH>
  <PP_LOCAL type="real"  size=" 602" columns="4">
   -1.4632316628E+01   -1.4634164201E+01   -1.4640294148E+01   -1.4649986486E+01
   -1.4662521230E+01   -1.4677009732E+01   -1.4692486670E+01   -1.4707997859E+01
   -1.4722672545E+01   -1.4735773800E+01   -1.4746725661E+01   -1.4755119573E+01
   -1.4760704905E+01   -1.4763369058E+01   -1.4763112251E+01   -1.4760020999E+01
   -1.4754243122E+01   -1.4745965912E+01   -1.4735398225E+01   -1.4722756582E+01
   -1.4708254978E+01   -1.4692097877E+01   -1.4674475806E+01   -1.4655562944E+01
   -1.4635516206E+01   -1.4614475375E+01   -1.4592563887E+01   -1.4569890068E+01
   -1.4546548560E+01   -1.4522621805E+01   -1.4498181513E+01   -1.4473290023E+01
   -1.4448001552E+01   -1.4422363300E+01   -1.4396416388E+01   -1.4370196700E+01
   -1.4343735557E+01   -1.4317060322E+01   -1.4290194859E+01   -1.4263159953E+01
   -1.4235973637E+01   -1.4208651469E+01   -1.4181206760E+01   -1.4153650767E+01
   -1.4125992854E+01   -1.4098240637E+01   -1.4070400098E+01   -1.4042475703E+01
   -1.4014470491E+01   -1.3986386172E+01   -1.3958223204E+01   -1.3929980872E+01
   -1.3901657375E+01   -1.3873249890E+01   -1.3844754640E+01   -1.3816166989E+01
   -1.3787481472E+01   -1.3758691909E+01   -1.3729791430E+01   -1.3700772582E+01
   -1.3671627360E+01   -1.3642347302E+01   -1.3612923538E+01   -1.3583346859E+01
   -1.3553607788E+01   -1.3523696633E+01   -1.3493603555E+01   -1.3463318633E+01
   -1.3432831918E+01   -1.3402133494E+01   -1.3371213540E+01   -1.3340062378E+01
   -1.3308670532E+01   -1.3277028774E+01   -1.3245128185E+01   -1.3212960188E+01
   -1.3180516597E+01   -1.3147789656E+01   -1.3114772078E+01   -1.3081457076E+01
   -1.3047838394E+01   -1.3013910332E+01   -1.2979667771E+01   -1.2945106189E+01
   -1.2910221677E+01   -1.2875010947E+01   -1.2839471343E+01   -1.2803600840E+01
   -1.2767398045E+01   -1.2730862192E+01   -1.2693993138E+01   -1.2656791344E+01
   -1.2619257874E+01   -1.2581394364E+01   -1.2543203018E+01   -1.2504686574E+01
   -1.2465848292E+01   -1.2426691922E+01   -1.2387221671E+01   -1.2347442203E+01
   -1.2307358599E+01   -1.2266976322E+01   -1.2226301190E+01   -1.2185339350E+01
   -1.2144097243E+01   -1.2102581597E+01   -1.2060799396E+01   -1.2018757836E+01
   -1.1976464309E+01   -1.1933926366E+01   -1.1891151732E+01   -1.1848148251E+01
   -1.1804923867E+01   -1.1761486608E+01   -1.1717844576E+01   -1.1674005926E+01
   -1.1629978840E+01   -1.1585771521E+01   -1.1541392184E+01   -1.1496849030E+01
   -1.1452150247E+01   -1.1407304000E+01   -1.1362318405E+01   -1.1317201540E+01
   -1.1271961447E+01   -1.1226606079E+01   -1.1181143340E+01   -1.1135581090E+01
   -1.1089927072E+01   -1.1044188976E+01   -1.0998374436E+01   -1.0952490957E+01
   -1.0906545993E+01   -1.0860546923E+01   -1.0814500998E+01   -1.0768415433E+01
   -1.0722297324E+01   -1.0676153670E+01   -1.0629991445E+01   -1.0583817446E+01
   -1.0537638447E+01   -1.0491461122E+01   -1.0445292022E+01   -1.0399137692E+01
   -1.0353004487E+01   -1.0306898759E+01   -1.0260826736E+01   -1.0214794552E+01
   -1.0168808313E+01   -1.0122873944E+01   -1.0076997403E+01   -1.0031184446E+01
   -9.9854408384E+00   -9.9397722036E+00   -9.8941841031E+00   -9.8486820280E+00
   -9.8032713363E+00   -9.7579573842E+00   -9.7127453285E+00   -9.6676403864E+00
   -9.6226475192E+00   -9.5777717901E+00   -9.5330179825E+00   -9.4883909813E+00
   -9.4438954072E+00   -9.3995359618E+00   -9.3553170968E+00   -9.3112433325E+00
   -9.2673189445E+00   -9.2235482749E+00   -9.1799354144E+00   -9.1364845311E+00
   -9.0931995206E+00   -9.0500843825E+00   -9.0071428066E+00   -8.9643786295E+00
   -8.9217953242E+00   -8.8793965709E+00   -8.8371856288E+00   -8.7951659845E+00
   -8.7533407250E+00   -8.7117131104E+00   -8.6702860762E+00   -8.6290626360E+00
   -8.5880455888E+00   -8.5472376838E+00   -8.5066415997E+00   -8.4662598037E+00
   -8.4260948693E+00   -8.3861489765E+00   -8.3464245798E+00   -8.3069236337E+00
   -8.2676483368E+00   -8.2286005581E+00   -8.1897821767E+00   -8.1511950030E+00
   -8.1128405785E+00   -8.0747206703E+00   -8.0368365370E+00   -7.9991897295E+00
   -7.9617814282E+00   -7.9246128413E+00   -7.8876851482E+00   -7.8509991995E+00
   -7.8145561399E+00   -7.7783565944E+00   -7.7424014120E+00   -7.7066912531E+00
   -7.6712265747E+00   -7.6360080902E+00   -7.6010359730E+00   -7.5663106771E+00
   -7.5318324293E+00   -7.4976012817E+00   -7.4636175537E+00   -7.4298810175E+00
   -7.3963917146E+00   -7.3631495253E+00   -7.3301540960E+00   -7.2974053479E+00
   -7.2649027392E+00   -7.2326458629E+00   -7.2006343368E+00   -7.1688673938E+00
   -7.1373445410E+00   -7.1060650093E+00   -7.0750279069E+00   -7.0442326151E+00
   -7.0136779881E+00   -6.9833630627E+00   -6.9532869310E+00   -6.9234482309E+00
   -6.8938458893E+00   -6.8644786448E+00   -6.8353449746E+00   -6.8064436675E+00
   -6.7777730982E+00   -6.7493315763E+00   -6.7211177397E+00   -6.6931295861E+00
   -6.6653652526E+00   -6.6378231852E+00   -6.6105010136E+00   -6.5833967080E+00
   -6.5565083755E+00   -6.5298334153E+00   -6.5033695122E+00   -6.4771143567E+00
   -6.4510655332E+00   -6.4252206036E+00   -6.3995771464E+00   -6.3741331088E+00
   -6.3488862110E+00   -6.3238342005E+00   -6.2989751730E+00   -6.2743070178E+00
   -6.2498276321E+00   -6.2255352165E+00   -6.2014278056E+00   -6.1775034096E+00
   -6.1537603083E+00   -6.1301966541E+00   -6.1068105430E+00   -6.0836003087E+00
   -6.0605641907E+00   -6.0377003538E+00   -6.0150071615E+00   -5.9924829039E+00
   -5.9701258271E+00   -5.9479342822E+00   -5.9259066020E+00   -5.9040410850E+00
   -5.8823360781E+00   -5.8607899433E+00   -5.8394010121E+00   -5.8181676305E+00
   -5.7970881923E+00   -5.7761610616E+00   -5.7553845662E+00   -5.7347571586E+00
   -5.7142772414E+00   -5.6939431460E+00   -5.6737533633E+00   -5.6537063700E+00
   -5.6338005633E+00   -5.6140344034E+00   -5.5944064998E+00   -5.5749153802E+00
   -5.5555594197E+00   -5.5363373877E+00   -5.5172478999E+00   -5.4982894938E+00
   -5.4794608409E+00   -5.4607606891E+00   -5.4421877158E+00   -5.4237405169E+00
   -5.4054179423E+00   -5.3872187378E+00   -5.3691415828E+00   -5.3511852666E+00
   -5.3333486489E+00   -5.3156305348E+00   -5.2980296206E+00   -5.2805448710E+00
   -5.2631751491E+00   -5.2459192728E+00   -5.2287760924E+00   -5.2117445928E+00
   -5.1948236874E+00   -5.1780122116E+00   -5.1613091596E+00   -5.1447135280E+00
   -5.1282242794E+00   -5.1118402774E+00   -5.0955606357E+00   -5.0793843665E+00
   -5.0633104529E+00   -5.0473378715E+00   -5.0314657566E+00   -5.0156931661E+00
   -5.0000191080E+00   -4.9844426568E+00   -4.9689629683E+00   -4.9535791443E+00
   -4.9382902215E+00   -4.9230953569E+00   -4.9079937302E+00   -4.8929844851E+00
   -4.8780666904E+00   -4.8632395707E+00   -4.8485023327E+00   -4.8338541599E+00
   -4.8192941563E+00   -4.8048216000E+00   -4.7904357280E+00   -4.7761357616E+00
   -4.7619208426E+00   -4.7477902895E+00   -4.7337433728E+00   -4.7197793501E+00
   -4.7058974027E+00   -4.6920968781E+00   -4.6783770828E+00   -4.6647373090E+00
   -4.6511767799E+00   -4.6376948604E+00   -4.6242908962E+00   -4.6109642121E+00
   -4.5977140757E+00   -4.5845398585E+00   -4.5714409476E+00   -4.5584166993E+00
   -4.5454664278E+00   -4.5325895012E+00   -4.5197853501E+00   -4.5070533607E+00
   -4.4943928964E+00   -4.4818033127E+00   -4.4692840851E+00   -4.4568346284E+00
   -4.4444543574E+00   -4.4321426074E+00   -4.4198988995E+00   -4.4077226754E+00
   -4.3956133774E+00   -4.3835703930E+00   -4.3715932098E+00   -4.3596813217E+00
   -4.3478341967E+00   -4.3360512783E+00   -4.3243320123E+00   -4.3126759452E+00
   -4.3010825697E+00   -4.2895513786E+00   -4.2780817983E+00   -4.2666733992E+00
   -4.2553257066E+00   -4.2440382370E+00   -4.2328104759E+00   -4.2216419347E+00
   -4.2105321968E+00   -4.1994808009E+00   -4.1884872859E+00   -4.1775511278E+00
   -4.1666719374E+00   -4.1558492843E+00   -4.1450827288E+00   -4.1343718103E+00
   -4.1237160654E+00   -4.1131151252E+00   -4.1025685703E+00   -4.0920759817E+00
   -4.0816368950E+00   -4.0712509236E+00   -4.0609176927E+00   -4.0506368026E+00
   -4.0404078536E+00   -4.0302303826E+00   -4.0201040675E+00   -4.0100285305E+00
   -4.0000033905E+00   -3.9900282530E+00   -3.9801027012E+00   -3.9702264242E+00
   -3.9603990588E+00   -3.9506202416E+00   -3.9408895837E+00   -3.9312067141E+00
   -3.9215713261E+00   -3.9119830733E+00   -3.9024416092E+00   -3.8929465542E+00
   -3.8834975729E+00   -3.8740943655E+00   -3.8647366018E+00   -3.8554239515E+00
   -3.8461560474E+00   -3.8369325799E+00   -3.8277532595E+00   -3.8186177712E+00
   -3.8095258003E+00   -3.8004769947E+00   -3.7914710618E+00   -3.7825077250E+00
   -3.7735866841E+00   -3.7647076391E+00   -3.7558702560E+00   -3.7470742503E+00
   -3.7383193614E+00   -3.7296053034E+00   -3.7209317898E+00   -3.7122985077E+00
   -3.7037051726E+00   -3.6951515427E+00   -3.6866373451E+00   -3.6781623071E+00
   -3.6697261388E+00   -3.6613285484E+00   -3.6529693152E+00   -3.6446481790E+00
   -3.6363648798E+00   -3.6281191536E+00   -3.6199106942E+00   -3.6117393041E+00
   -3.6036047352E+00   -3.5955067395E+00   -3.5874450690E+00   -3.5794194341E+00
   -3.5714296249E+00   -3.5634754172E+00   -3.5555565745E+00   -3.5476728603E+00
   -3.5398240159E+00   -3.5320098011E+00   -3.5242300209E+00   -3.5164844499E+00
   -3.5087728627E+00   -3.5010950336E+00   -3.4934506872E+00   -3.4858396586E+00
   -3.4782617328E+00   -3.4707166949E+00   -3.4632043301E+00   -3.4557243971E+00
   -3.4482766880E+00   -3.4408610221E+00   -3.4334771946E+00   -3.4261250004E+00
   -3.4188042346E+00   -3.4115146458E+00   -3.4042560830E+00   -3.3970283527E+00
   -3.3898312593E+00   -3.3826646075E+00   -3.3755281849E+00   -3.3684217854E+00
   -3.3613452534E+00   -3.3542984029E+00   -3.3472810475E+00   -3.3402930010E+00
   -3.3333340458E+00   -3.3264040170E+00   -3.3195027527E+00   -3.3126300751E+00
   -3.3057858067E+00   -3.2989697701E+00   -3.2921817461E+00   -3.2854216022E+00
   -3.2786891729E+00   -3.2719842890E+00   -3.2653067810E+00   -3.2586564754E+00
   -3.2520331680E+00   -3.2454367372E+00   -3.2388670215E+00   -3.2323238596E+00
   -3.2258070900E+00   -3.2193165422E+00   -3.2128520310E+00   -3.2064134368E+00
   -3.2000006057E+00   -3.1936133837E+00   -3.1872516170E+00   -3.1809151413E+00
   -3.1746037827E+00   -3.1683174265E+00   -3.1620559259E+00   -3.1558191342E+00
   -3.1496069048E+00   -3.1434190820E+00   -3.1372554967E+00   -3.1311160416E+00
   -3.1250005767E+00   -3.1189089623E+00   -3.1128410583E+00   -3.1067967207E+00
   -3.1007757785E+00   -3.0947781342E+00   -3.0888036544E+00   -3.0828522058E+00
   -3.0769236551E+00   -3.0710178687E+00   -3.0651346771E+00   -3.0592739859E+00
   -3.0534356708E+00   -3.0476196048E+00   -3.0418256606E+00   -3.0360537111E+00
   -3.0303036032E+00   -3.0245752267E+00   -3.0188684733E+00   -3.0131832217E+00
   -3.0075193507E+00   -3.0018767390E+00   -2.9962552522E+00   -2.9906547595E+00
   -2.9850751700E+00   -2.9795163679E+00   -2.9739782379E+00   -2.9684606642E+00
   -2.9629635313E+00   -2.9574866893E+00   -2.9520300597E+00   -2.9465935345E+00
   -2.9411770035E+00   -2.9357803566E+00   -2.9304034834E+00   -2.9250462572E+00
   -2.9197085672E+00   -2.9143903278E+00   -2.9090914340E+00   -2.9038117807E+00
   -2.8985512628E+00   -2.8933097753E+00   -2.8880871816E+00   -2.8828834091E+00
   -2.8776983609E+00   -2.8725319369E+00   -2.8673840371E+00   -2.8622545611E+00
   -2.8571433997E+00   -2.8520504378E+00   -2.8469756052E+00   -2.8419188063E+00
   -2.8368799456E+00   -2.8318589275E+00   -2.8268556568E+00   -2.8218700192E+00
   -2.8169019250E+00   -2.8119512984E+00   -2.8070180481E+00   -2.8021020833E+00
   -2.7972033129E+00   -2.7923216458E+00   -2.7874569664E+00   -2.7826092031E+00
   -2.7777782772E+00   -2.7729641021E+00   -2.7681665909E+00   -2.7633856567E+00
   -2.7586212128E+00   -2.7538731447E+00   -2.7491413925E+00   -2.7444258777E+00
   -2.7397265174E+00   -2.7350432290E+00   -2.7303759296E+00   -2.7257245365E+00
   -2.7210889386E+00   -2.7164690822E+00   -2.7118648910E+00   -2.7072762862E+00
   -2.7027031888E+00   -2.6981455201E+00   -2.6936032010E+00   -2.6890761263E+00
   -2.6845642425E+00   -2.6800674784E+00   -2.6755857588E+00   -2.6711190085E+00
   -2.6666671521E+00   -2.6622301146E+00
  </PP_LOCAL>
 <PP_NONLOCAL>
   <PP_BETA.1
       type="real"
       size=" 602"
       columns="4"
       index="1"
       angular_momentum="0"
       cutoff_radius_index=" 290"
       cutoff_radius="    2.8900000000E+00" >
    0.0000000000E+00    7.6679819372E-03    1.5343850326E-02    2.3035404968E-02
    3.0750272808E-02    3.8495822604E-02    4.6279080911E-02    5.4106649807E-02
    6.1984626789E-02    6.9918527240E-02    7.7913209879E-02    8.5972805584E-02
    9.4100649949E-02    1.0229921996E-01    1.1057007510E-01    1.1891380322E-01
    1.2732997151E-01    1.3581708279E-01    1.4437253744E-01    1.5299260111E-01
    1.6167237857E-01    1.7040579375E-01    1.7918557620E-01    1.8800325398E-01
    1.9684915331E-01    2.0571240485E-01    2.1458095664E-01    2.2344159396E-01
    2.3227996572E-01    2.4108061773E-01    2.4982703242E-01    2.5850167519E-01
    2.6708604713E-01    2.7556074351E-01    2.8390551940E-01    2.9209935941E-01
    3.0012055514E-01    3.0794678466E-01    3.1555520162E-01    3.2292252454E-01
    3.3002513260E-01    3.3683916512E-01    3.4334062454E-01    3.4950548254E-01
    3.5530978884E-01    3.6072978237E-01    3.6574200435E-01    3.7032341263E-01
    3.7445149692E-01    3.7810439061E-01    3.8126099428E-01    3.8390108838E-01
    3.8600543761E-01    3.8755591578E-01    3.8853561664E-01    3.8892893790E-01
    3.8872173324E-01    3.8790134868E-01    3.8645679574E-01    3.8437876314E-01
    3.8165978294E-01    3.7829425016E-01    3.7427853124E-01    3.6961104334E-01
    3.6429227575E-01    3.5832489573E-01    3.5171378018E-01    3.4446604258E-01