<UPF version="2.0.1">
  <PP_INFO>

 Mn_ONCV_PBE_FR-1.0.upf

 This pseudopotential file has been produced using the code
 ONCVPSP  (Optimized Norm-Conservinng Vanderbilt PSeudopotential)
 fully-relativistic version 2.1.1, 03/26/2014 by D. R. Hamann
 The code is available through a link at URL www.mat-simresearch.com.
 Documentation with the package provides a full description of the
 input data below.

 While it is not required under the terms of the GNU GPL, it is
 suggested that you cite D. R. Hamann, Phys. Rev. B 88, 085117 (2013)
 in any publication using these pseudopotentials.

 -----

 This pseudopotential was produced with the SG15 1.0 and/or 1.1
 parameter sets, the Schlipf-Gygi norm-conserving pseudopotential
 library. For details of the construction and testing of the
 pseudopotential please refer to:

 M. Schlipf, F. Gygi, Comp. Phys. Comm. 196, 36 (2015)
 http://dx.doi.org/10.1016/j.cpc.2015.05.011

 The above authors kindly ask that you include this reference in all
 publications associated to this pseudopotential.

 Please note this fully-relativistic version does not employ the
 above self-consistent procedure at the fully-relativistic level.

 -----

 This pseudopotential was produced by Peter Scherpelz for the purpose
 of performing GW calculations with spin-orbit-coupling. Please see
 the publication:

 P. Scherpelz, M. Govoni, I. Hamada, G. Galli; J. Chem. Theory Comput. (2016)
 http://dx.doi.org/10.1021/acs.jctc.6b00114

 If you use these pseudopotentials in your work, we also kindly ask
 that you cite the above publication.

 -----

 This work is licensed under the Creative Commons Attribution-ShareAlike 
 4.0 International License. To view a copy of this license, visit 
 http://creativecommons.org/licenses/by-sa/4.0/ or send a letter to 
 Creative Commons, PO Box 1866, Mountain View, CA 94042, USA.

 The SG15 library is Copyright 2015 The Regents of the University of
 California.  Further modifications of these files are Copyright 2016
 Peter Scherpelz.

    <PP_INPUTFILE>
# ATOM AND REFERENCE CONFIGURATION
# atsym  z    nc    nv    iexc   psfile
  Mn 25.00     3     4     4      upf
#
#   n    l    f        energy (Ha)
    1    0    2.00
    2    0    2.00
    2    1    6.00
    3    0    2.00
    3    1    6.00
    4    0    2.00
    3    2    5.00
#
# PSEUDOPOTENTIAL AND OPTIMIZATION
# lmax
    2
#
#   l,   rc,     ep,   ncon, nbas, qcut
    0    2.47   -3.16    5    8    6.17
    1    2.47   -1.99    5    8    7.86
    2    2.12   -0.25    5    8    7.59
#
# LOCAL POTENTIAL
# lloc, lpopt,  rc(5),   dvloc0
    4    5      1.93       0.00
#
# VANDERBILT-KLEINMAN-BYLANDER PROJECTORs
# l, nproj, debl
    0    2    2.9677
    1    2    1.9405
    2    2    1.0927
#
# MODEL CORE CHARGE
# icmod, fcfact
    0    0.00
#
# LOG DERIVATIVE ANALYSIS
# epsh1, epsh2, depsh
   -5.00    3.00    0.02
#
# OUTPUT GRID
# rlmax, drl
    6.00    0.01
#
# TEST CONFIGURATIONS
# ncnf
    0
# nvcnf
#   n    l    f
    </PP_INPUTFILE>
  </PP_INFO>
  <!--                               -->
  <!-- END OF HUMAN READABLE SECTION -->
  <!--                               -->
    <PP_HEADER
       generated="Generated using ONCVPSP code by D. R. Hamann"
       author="anonymous"
       date="150703"
       comment=""
       element="Mn"
       pseudo_type="NC"
       relativistic="full"
       is_ultrasoft="F"
       is_paw="F"
       is_coulomb="F"
       has_so="T"
       has_wfc="F"
       has_gipaw="F"
       core_correction="F"
       functional="PBE"
       z_valence="   15.00"
       total_psenergy="  -9.91794193911E+01"
       rho_cutoff="   6.01000000000E+00"
       l_max="2"
       l_local="-1"
       mesh_size="   602"
       number_of_wfc="0"
       number_of_proj="10"/>
 <PP_MESH>
   <PP_R type="real"  size=" 602" columns="8">
    0.0000    0.0100    0.0200    0.0300    0.0400    0.0500    0.0600    0.0700
    0.0800    0.0900    0.1000    0.1100    0.1200    0.1300    0.1400    0.1500
    0.1600    0.1700    0.1800    0.1900    0.2000    0.2100    0.2200    0.2300
    0.2400    0.2500    0.2600    0.2700    0.2800    0.2900    0.3000    0.3100
    0.3200    0.3300    0.3400    0.3500    0.3600    0.3700    0.3800    0.3900
    0.4000    0.4100    0.4200    0.4300    0.4400    0.4500    0.4600    0.4700
    0.4800    0.4900    0.5000    0.5100    0.5200    0.5300    0.5400    0.5500
    0.5600    0.5700    0.5800    0.5900    0.6000    0.6100    0.6200    0.6300
    0.6400    0.6500    0.6600    0.6700    0.6800    0.6900    0.7000    0.7100
    0.7200    0.7300    0.7400    0.7500    0.7600    0.7700    0.7800    0.7900
    0.8000    0.8100    0.8200    0.8300    0.8400    0.8500    0.8600    0.8700
    0.8800    0.8900    0.9000    0.9100    0.9200    0.9300    0.9400    0.9500
    0.9600    0.9700    0.9800    0.9900    1.0000    1.0100    1.0200    1.0300
    1.0400    1.0500    1.0600    1.0700    1.0800    1.0900    1.1000    1.1100
    1.1200    1.1300    1.1400    1.1500    1.1600    1.1700    1.1800    1.1900
    1.2000    1.2100    1.2200    1.2300    1.2400    1.2500    1.2600    1.2700
    1.2800    1.2900    1.3000    1.3100    1.3200    1.3300    1.3400    1.3500
    1.3600    1.3700    1.3800    1.3900    1.4000    1.4100    1.4200    1.4300
    1.4400    1.4500    1.4600    1.4700    1.4800    1.4900    1.5000    1.5100
    1.5200    1.5300    1.5400    1.5500    1.5600    1.5700    1.5800    1.5900
    1.6000    1.6100    1.6200    1.6300    1.6400    1.6500    1.6600    1.6700
    1.6800    1.6900    1.7000    1.7100    1.7200    1.7300    1.7400    1.7500
    1.7600    1.7700    1.7800    1.7900    1.8000    1.8100    1.8200    1.8300
    1.8400    1.8500    1.8600    1.8700    1.8800    1.8900    1.9000    1.9100
    1.9200    1.9300    1.9400    1.9500    1.9600    1.9700    1.9800    1.9900
    2.0000    2.0100    2.0200    2.0300    2.0400    2.0500    2.0600    2.0700
    2.0800    2.0900    2.1000    2.1100    2.1200    2.1300    2.1400    2.1500
    2.1600    2.1700    2.1800    2.1900    2.2000    2.2100    2.2200    2.2300
    2.2400    2.2500    2.2600    2.2700    2.2800    2.2900    2.3000    2.3100
    2.3200    2.3300    2.3400    2.3500    2.3600    2.3700    2.3800    2.3900
    2.4000    2.4100    2.4200    2.4300    2.4400    2.4500    2.4600    2.4700
    2.4800    2.4900    2.5000    2.5100    2.5200    2.5300    2.5400    2.5500
    2.5600    2.5700    2.5800    2.5900    2.6000    2.6100    2.6200    2.6300
    2.6400    2.6500    2.6600    2.6700    2.6800    2.6900    2.7000    2.7100
    2.7200    2.7300    2.7400    2.7500    2.7600    2.7700    2.7800    2.7900
    2.8000    2.8100    2.8200    2.8300    2.8400    2.8500    2.8600    2.8700
    2.8800    2.8900    2.9000    2.9100    2.9200    2.9300    2.9400    2.9500
    2.9600    2.9700    2.9800    2.9900    3.0000    3.0100    3.0200    3.0300
    3.0400    3.0500    3.0600    3.0700    3.0800    3.0900    3.1000    3.1100
    3.1200    3.1300    3.1400    3.1500    3.1600    3.1700    3.1800    3.1900
    3.2000    3.2100    3.2200    3.2300    3.2400    3.2500    3.2600    3.2700
    3.2800    3.2900    3.3000    3.3100    3.3200    3.3300    3.3400    3.3500
    3.3600    3.3700    3.3800    3.3900    3.4000    3.4100    3.4200    3.4300
    3.4400    3.4500    3.4600    3.4700    3.4800    3.4900    3.5000    3.5100
    3.5200    3.5300    3.5400    3.5500    3.5600    3.5700    3.5800    3.5900
    3.6000    3.6100    3.6200    3.6300    3.6400    3.6500    3.6600    3.6700
    3.6800    3.6900    3.7000    3.7100    3.7200    3.7300    3.7400    3.7500
    3.7600    3.7700    3.7800    3.7900    3.8000    3.8100    3.8200    3.8300
    3.8400    3.8500    3.8600    3.8700    3.8800    3.8900    3.9000    3.9100
    3.9200    3.9300    3.9400    3.9500    3.9600    3.9700    3.9800    3.9900
    4.0000    4.0100    4.0200    4.0300    4.0400    4.0500    4.0600    4.0700
    4.0800    4.0900    4.1000    4.1100    4.1200    4.1300    4.1400    4.1500
    4.1600    4.1700    4.1800    4.1900    4.2000    4.2100    4.2200    4.2300
    4.2400    4.2500    4.2600    4.2700    4.2800    4.2900    4.3000    4.3100
    4.3200    4.3300    4.3400    4.3500    4.3600    4.3700    4.3800    4.3900
    4.4000    4.4100    4.4200    4.4300    4.4400    4.4500    4.4600    4.4700
    4.4800    4.4900    4.5000    4.5100    4.5200    4.5300    4.5400    4.5500
    4.5600    4.5700    4.5800    4.5900    4.6000    4.6100    4.6200    4.6300
    4.6400    4.6500    4.6600    4.6700    4.6800    4.6900    4.7000    4.7100
    4.7200    4.7300    4.7400    4.7500    4.7600    4.7700    4.7800    4.7900
    4.8000    4.8100    4.8200    4.8300    4.8400    4.8500    4.8600    4.8700
    4.8800    4.8900    4.9000    4.9100    4.9200    4.9300    4.9400    4.9500
    4.9600    4.9700    4.9800    4.9900    5.0000    5.0100    5.0200    5.0300
    5.0400    5.0500    5.0600    5.0700    5.0800    5.0900    5.1000    5.1100
    5.1200    5.1300    5.1400    5.1500    5.1600    5.1700    5.1800    5.1900
    5.2000    5.2100    5.2200    5.2300    5.2400    5.2500    5.2600    5.2700
    5.2800    5.2900    5.3000    5.3100    5.3200    5.3300    5.3400    5.3500
    5.3600    5.3700    5.3800    5.3900    5.4000    5.4100    5.4200    5.4300
    5.4400    5.4500    5.4600    5.4700    5.4800    5.4900    5.5000    5.5100
    5.5200    5.5300    5.5400    5.5500    5.5600    5.5700    5.5800    5.5900
    5.6000    5.6100    5.6200    5.6300    5.6400    5.6500    5.6600    5.6700
    5.6800    5.6900    5.7000    5.7100    5.7200    5.7300    5.7400    5.7500
    5.7600    5.7700    5.7800    5.7900    5.8000    5.8100    5.8200    5.8300
    5.8400    5.8500    5.8600    5.8700    5.8800    5.8900    5.9000    5.9100
    5.9200    5.9300    5.9400    5.9500    5.9600    5.9700    5.9800    5.9900
    6.0000    6.0100
   </PP_R>
   <PP_RAB type="real"  size=" 602" columns="8">
    0.0100    0.0100    0.0100    0.0100    0.0100    0.0100    0.0100    0.0100
    0.0100    0.0100    0.0100    0.0100    0.0100    0.0100    0.0100    0.0100
    0.0100    0.0100    0.0100    0.0100    0.0100    0.0100    0.0100    0.0100
    0.0100    0.0100    0.0100    0.0100    0.0100    0.0100    0.0100    0.0100
    0.0100    0.0100    0.0100    0.0100    0.0100    0.0100    0.0100    0.0100
    0.0100    0.0100    0.0100    0.0100    0.0100    0.0100    0.0100    0.0100
    0.0100    0.0100    0.0100    0.0100    0.0100    0.0100    0.0100    0.0100
    0.0100    0.0100    0.0100    0.0100    0.0100    0.0100    0.0100    0.0100
    0.0100    0.0100    0.0100    0.0100    0.0100    0.0100    0.0100    0.0100
    0.0100    0.0100    0.0100    0.0100    0.0100    0.0100    0.0100    0.0100
    0.0100    0.0100    0.0100    0.0100    0.0100    0.0100    0.0100    0.0100
    0.0100    0.0100    0.0100    0.0100    0.0100    0.0100    0.0100    0.0100
    0.0100    0.0100    0.0100    0.0100    0.0100    0.0100    0.0100    0.0100
    0.0100    0.0100    0.0100    0.0100    0.0100    0.0100    0.0100    0.0100
    0.0100    0.0100    0.0100    0.0100    0.0100    0.0100    0.0100    0.0100
    0.0100    0.0100    0.0100    0.0100    0.0100    0.0100    0.0100    0.0100
    0.0100    0.0100    0.0100    0.0100    0.0100    0.0100    0.0100    0.0100
    0.0100    0.0100    0.0100    0.0100    0.0100    0.0100    0.0100    0.0100
    0.0100    0.0100    0.0100    0.0100    0.0100    0.0100    0.0100    0.0100
    0.0100    0.0100    0.0100    0.0100    0.0100    0.0100    0.0100    0.0100
    0.0100    0.0100    0.0100    0.0100    0.0100    0.0100    0.0100    0.0100
    0.0100    0.0100    0.0100    0.0100    0.0100    0.0100    0.0100    0.0100
    0.0100    0.0100    0.0100    0.0100    0.0100    0.0100    0.0100    0.0100
    0.0100    0.0100    0.0100    0.0100    0.0100    0.0100    0.0100    0.0100
    0.0100    0.0100    0.0100    0.0100    0.0100    0.0100    0.0100    0.0100
    0.0100    0.0100    0.0100    0.0100    0.0100    0.0100    0.0100    0.0100
    0.0100    0.0100    0.0100    0.0100    0.0100    0.0100    0.0100    0.0100
    0.0100    0.0100    0.0100    0.0100    0.0100    0.0100    0.0100    0.0100
    0.0100    0.0100    0.0100    0.0100    0.0100    0.0100    0.0100    0.0100
    0.0100    0.0100    0.0100    0.0100    0.0100    0.0100    0.0100    0.0100
    0.0100    0.0100    0.0100    0.0100    0.0100    0.0100    0.0100    0.0100
    0.0100    0.0100    0.0100    0.0100    0.0100    0.0100    0.0100    0.0100
    0.0100    0.0100    0.0100    0.0100    0.0100    0.0100    0.0100    0.0100
    0.0100    0.0100    0.0100    0.0100    0.0100    0.0100    0.0100    0.0100
    0.0100    0.0100    0.0100    0.0100    0.0100    0.0100    0.0100    0.0100
    0.0100    0.0100    0.0100    0.0100    0.0100    0.0100    0.0100    0.0100
    0.0100    0.0100    0.0100    0.0100    0.0100    0.0100    0.0100    0.0100
    0.0100    0.0100    0.0100    0.0100    0.0100    0.0100    0.0100    0.0100
    0.0100    0.0100    0.0100    0.0100    0.0100    0.0100    0.0100    0.0100
    0.0100    0.0100    0.0100    0.0100    0.0100    0.0100    0.0100    0.0100
    0.0100    0.0100    0.0100    0.0100    0.0100    0.0100    0.0100    0.0100
    0.0100    0.0100    0.0100    0.0100    0.0100    0.0100    0.0100    0.0100
    0.0100    0.0100    0.0100    0.0100    0.0100    0.0100    0.0100    0.0100
    0.0100    0.0100    0.0100    0.0100    0.0100    0.0100    0.0100    0.0100
    0.0100    0.0100    0.0100    0.0100    0.0100    0.0100    0.0100    0.0100
    0.0100    0.0100    0.0100    0.0100    0.0100    0.0100    0.0100    0.0100
    0.0100    0.0100    0.0100    0.0100    0.0100    0.0100    0.0100    0.0100
    0.0100    0.0100    0.0100    0.0100    0.0100    0.0100    0.0100    0.0100
    0.0100    0.0100    0.0100    0.0100    0.0100    0.0100    0.0100    0.0100
    0.0100    0.0100    0.0100    0.0100    0.0100    0.0100    0.0100    0.0100
    0.0100    0.0100    0.0100    0.0100    0.0100    0.0100    0.0100    0.0100
    0.0100    0.0100    0.0100    0.0100    0.0100    0.0100    0.0100    0.0100
    0.0100    0.0100    0.0100    0.0100    0.0100    0.0100    0.0100    0.0100
    0.0100    0.0100    0.0100    0.0100    0.0100    0.0100    0.0100    0.0100
    0.0100    0.0100    0.0100    0.0100    0.0100    0.0100    0.0100    0.0100
    0.0100    0.0100    0.0100    0.0100    0.0100    0.0100    0.0100    0.0100
    0.0100    0.0100    0.0100    0.0100    0.0100    0.0100    0.0100    0.0100
    0.0100    0.0100    0.0100    0.0100    0.0100    0.0100    0.0100    0.0100
    0.0100    0.0100    0.0100    0.0100    0.0100    0.0100    0.0100    0.0100
    0.0100    0.0100    0.0100    0.0100    0.0100    0.0100    0.0100    0.0100
    0.0100    0.0100    0.0100    0.0100    0.0100    0.0100    0.0100    0.0100
    0.0100    0.0100    0.0100    0.0100    0.0100    0.0100    0.0100    0.0100
    0.0100    0.0100    0.0100    0.0100    0.0100    0.0100    0.0100    0.0100
    0.0100    0.0100    0.0100    0.0100    0.0100    0.0100    0.0100    0.0100
    0.0100    0.0100    0.0100    0.0100    0.0100    0.0100    0.0100    0.0100
    0.0100    0.0100    0.0100    0.0100    0.0100    0.0100    0.0100    0.0100
    0.0100    0.0100    0.0100    0.0100    0.0100    0.0100    0.0100    0.0100
    0.0100    0.0100    0.0100    0.0100    0.0100    0.0100    0.0100    0.0100
    0.0100    0.0100    0.0100    0.0100    0.0100    0.0100    0.0100    0.0100
    0.0100    0.0100    0.0100    0.0100    0.0100    0.0100    0.0100    0.0100
    0.0100    0.0100    0.0100    0.0100    0.0100    0.0100    0.0100    0.0100
    0.0100    0.0100    0.0100    0.0100    0.0100    0.0100    0.0100    0.0100
    0.0100    0.0100    0.0100    0.0100    0.0100    0.0100    0.0100    0.0100
    0.0100    0.0100    0.0100    0.0100    0.0100    0.0100    0.0100    0.0100
    0.0100    0.0100    0.0100    0.0100    0.0100    0.0100    0.0100    0.0100
    0.0100    0.0100
   </PP_RAB>
 </PP_MESH>
  <PP_LOCAL type="real"  size=" 602" columns="4">
   -3.7011510827E+01   -3.7011051546E+01   -3.7009853132E+01   -3.7007703953E+01
   -3.7004392377E+01   -3.6999651647E+01   -3.6993183819E+01   -3.6984684014E+01
   -3.6973862127E+01   -3.6960460000E+01   -3.6944263079E+01   -3.6925106515E+01
   -3.6902876374E+01   -3.6877507029E+01   -3.6848975931E+01   -3.6817296916E+01
   -3.6782512952E+01   -3.6744689069E+01   -3.6703905888E+01   -3.6660254035E+01
   -3.6613829515E+01   -3.6564730036E+01   -3.6513052208E+01   -3.6458889490E+01
   -3.6402330760E+01   -3.6343459386E+01   -3.6282352676E+01   -3.6219081609E+01
   -3.6153710776E+01   -3.6086298458E+01   -3.6016896786E+01   -3.5945551966E+01
   -3.5872304508E+01   -3.5797189477E+01   -3.5720236739E+01   -3.5641471163E+01
   -3.5560912860E+01   -3.5478577336E+01   -3.5394475692E+01   -3.5308614780E+01
   -3.5220997353E+01   -3.5131622226E+01   -3.5040484448E+01   -3.4947575481E+01
   -3.4852883411E+01   -3.4756393188E+01   -3.4658086917E+01   -3.4557944186E+01
   -3.4455942450E+01   -3.4352057490E+01   -3.4246263919E+01   -3.4138535747E+01
   -3.4028847015E+01   -3.3917172469E+01   -3.3803488273E+01   -3.3687772792E+01
   -3.3570007263E+01   -3.3450176701E+01   -3.3328270404E+01   -3.3204282896E+01
   -3.3078214276E+01   -3.2950070917E+01   -3.2819865875E+01   -3.2687618942E+01
   -3.2553357256E+01   -3.2417114986E+01   -3.2278933223E+01   -3.2138860050E+01
   -3.1996949985E+01   -3.1853263536E+01   -3.1707866654E+01   -3.1560830292E+01
   -3.1412229629E+01   -3.1262143388E+01   -3.1110653178E+01   -3.0957842822E+01
   -3.0803797704E+01   -3.0648604168E+01   -3.0492348946E+01   -3.0335118640E+01
   -3.0176999288E+01   -3.0018075967E+01   -2.9858432475E+01   -2.9698151052E+01
   -2.9537312169E+01   -2.9375994357E+01   -2.9214274080E+01   -2.9052225648E+01
   -2.8889921154E+01   -2.8727430440E+01   -2.8564821081E+01   -2.8402158383E+01
   -2.8239505387E+01   -2.8076922905E+01   -2.7914469511E+01   -2.7752201504E+01
   -2.7590173005E+01   -2.7428435931E+01   -2.7267040004E+01   -2.7106032749E+01
   -2.6945459488E+01   -2.6785363429E+01   -2.6625785408E+01   -2.6466764013E+01
   -2.6308335596E+01   -2.6150534222E+01   -2.5993391713E+01   -2.5836937569E+01
   -2.5681198683E+01   -2.5526199701E+01   -2.5371962893E+01   -2.5218508398E+01
   -2.5065853495E+01   -2.4914013210E+01   -2.4763000297E+01   -2.4612825525E+01
   -2.4463496798E+01   -2.4315020057E+01   -2.4167399350E+01   -2.4020636788E+01
   -2.3874732174E+01   -2.3729683948E+01   -2.3585489287E+01   -2.3442143440E+01
   -2.3299640841E+01   -2.3157975152E+01   -2.3017139035E+01   -2.2877124894E+01
   -2.2737924902E+01   -2.2599531204E+01   -2.2461936399E+01   -2.2325133224E+01
   -2.2189115561E+01   -2.2053878124E+01   -2.1919416185E+01   -2.1785727221E+01
   -2.1652809306E+01   -2.1520662145E+01   -2.1389287547E+01   -2.1258687667E+01
   -2.1128867617E+01   -2.0999833148E+01   -2.0871591502E+01   -2.0744151971E+01
   -2.0617523902E+01   -2.0491719058E+01   -2.0366749139E+01   -2.0242627096E+01
   -2.0119366266E+01   -1.9996980340E+01   -1.9875483121E+01   -1.9754888523E+01
   -1.9635209801E+01   -1.9516460137E+01   -1.9398651672E+01   -1.9281795797E+01
   -1.9165903056E+01   -1.9050982165E+01   -1.8937041638E+01   -1.8824086916E+01
   -1.8712124113E+01   -1.8601155154E+01   -1.8491183488E+01   -1.8382207677E+01
   -1.8274228335E+01   -1.8167241246E+01   -1.8061244142E+01   -1.7956230856E+01
   -1.7852196678E+01   -1.7749134206E+01   -1.7647036984E+01   -1.7545897200E+01
   -1.7445707386E+01   -1.7346460145E+01   -1.7248147690E+01   -1.7150763646E+01
   -1.7054300684E+01   -1.6958753594E+01   -1.6864116164E+01   -1.6770384209E+01
   -1.6677552976E+01   -1.6585619000E+01   -1.6494578895E+01   -1.6404429606E+01
   -1.6315168534E+01   -1.6226792855E+01   -1.6139299770E+01   -1.6052686643E+01
   -1.5966949397E+01   -1.5882085326E+01   -1.5798088650E+01   -1.5714955233E+01
   -1.5632678282E+01   -1.5551250861E+01   -1.5470665670E+01   -1.5390913390E+01
   -1.5311986085E+01   -1.5233873205E+01   -1.5156565628E+01   -1.5080052503E+01
   -1.5004323095E+01   -1.4929366551E+01   -1.4855171009E+01   -1.4781725253E+01
   -1.4709017280E+01   -1.4637035221E+01   -1.4565767408E+01   -1.4495202245E+01
   -1.4425327728E+01   -1.4356133435E+01   -1.4287607780E+01   -1.4219740689E+01
   -1.4152522585E+01   -1.4085942923E+01   -1.4019993758E+01   -1.3954666022E+01
   -1.3889951174E+01   -1.3825841017E+01   -1.3762327090E+01   -1.3699401124E+01
   -1.3637054636E+01   -1.3575279344E+01   -1.3514067527E+01   -1.3453410983E+01
   -1.3393302114E+01   -1.3333733302E+01   -1.3274696601E+01   -1.3216185012E+01
   -1.3158191040E+01   -1.3100707395E+01   -1.3043727354E+01   -1.2987243663E+01
   -1.2931249700E+01   -1.2875739010E+01   -1.2820704609E+01   -1.2766140520E+01
   -1.2712040507E+01   -1.2658398007E+01   -1.2605207507E+01   -1.2552462993E+01
   -1.2500158454E+01   -1.2448288649E+01   -1.2396847851E+01   -1.2345830538E+01
   -1.2295231734E+01   -1.2245046002E+01   -1.2195268243E+01   -1.2145893723E+01
   -1.2096917312E+01   -1.2048334241E+01   -1.2000139966E+01   -1.1952329603E+01
   -1.1904898639E+01   -1.1857842736E+01   -1.1811157232E+01   -1.1764837835E+01
   -1.1718880431E+01   -1.1673280618E+01   -1.1628034266E+01   -1.1583137435E+01
   -1.1538585916E+01   -1.1494375710E+01   -1.1450503107E+01   -1.1406964133E+01
   -1.1363754896E+01   -1.1320871885E+01   -1.1278311349E+01   -1.1236069469E+01
   -1.1194142938E+01   -1.1152528233E+01   -1.1111221584E+01   -1.1070219885E+01
   -1.1029519778E+01   -1.0989117703E+01   -1.0949010567E+01   -1.0909195228E+01
   -1.0869668352E+01   -1.0830426818E+01   -1.0791467704E+01   -1.0752787902E+01
   -1.0714384248E+01   -1.0676254028E+01   -1.0638394333E+01   -1.0600802044E+01
   -1.0563474541E+01   -1.0526409084E+01   -1.0489602782E+01   -1.0453052911E+01
   -1.0416756952E+01   -1.0380712250E+01   -1.0344915963E+01   -1.0309365783E+01
   -1.0274059187E+01   -1.0238993520E+01   -1.0204166364E+01   -1.0169575413E+01
   -1.0135218245E+01   -1.0101092281E+01   -1.0067195428E+01   -1.0033525395E+01
   -1.0000079772E+01   -9.9668563320E+00   -9.9338529967E+00   -9.9010675803E+00
   -9.8684977042E+00   -9.8361414542E+00   -9.8039967624E+00   -9.7720614821E+00
   -9.7403334731E+00   -9.7088108960E+00   -9.6774917643E+00   -9.6463739651E+00
   -9.6154556129E+00   -9.5847348948E+00   -9.5542099171E+00   -9.5238786123E+00
   -9.4937393143E+00   -9.4637902404E+00   -9.4340295611E+00   -9.4044553357E+00
   -9.3750660106E+00   -9.3458598642E+00   -9.3168351154E+00   -9.2879899934E+00
   -9.2593229891E+00   -9.2308324613E+00   -9.2025166843E+00   -9.1743740295E+00
   -9.1464030367E+00   -9.1186021410E+00   -9.0909696786E+00   -9.0635041363E+00
   -9.0362041078E+00   -9.0090681012E+00   -8.9820945198E+00   -8.9552819406E+00
   -8.9286290168E+00   -8.9021343260E+00   -8.8757963434E+00   -8.8496137129E+00
   -8.8235851522E+00   -8.7977093051E+00   -8.7719847238E+00   -8.7464100964E+00
   -8.7209842104E+00   -8.6957057729E+00   -8.6705734172E+00   -8.6455858553E+00
   -8.6207419487E+00   -8.5960404648E+00   -8.5714801229E+00   -8.5470596394E+00
   -8.5227779538E+00   -8.4986338908E+00   -8.4746262602E+00   -8.4507537657E+00
   -8.4270154272E+00   -8.4034101242E+00   -8.3799367363E+00   -8.3565940137E+00
   -8.3333809842E+00   -8.3102966039E+00   -8.2873398047E+00   -8.2645094346E+00
   -8.2418044662E+00   -8.2192239504E+00   -8.1967668687E+00   -8.1744321727E+00
   -8.1522187654E+00   -8.1301257930E+00   -8.1081522843E+00   -8.0862972685E+00
   -8.0645596603E+00   -8.0429386082E+00   -8.0214332165E+00   -8.0000425595E+00
   -7.9787656620E+00   -7.9576015691E+00   -7.9365494906E+00   -7.9156085441E+00
   -7.8947778469E+00   -7.8740564025E+00   -7.8534434525E+00   -7.8329381788E+00
   -7.8125397398E+00   -7.7922472566E+00   -7.7720598378E+00   -7.7519767785E+00
   -7.7319972764E+00   -7.7121205294E+00   -7.6923456484E+00   -7.6726718959E+00
   -7.6530985527E+00   -7.6336248541E+00   -7.6142500351E+00   -7.5949732071E+00
   -7.5757937613E+00   -7.5567109706E+00   -7.5377241057E+00   -7.5188324047E+00
   -7.5000350863E+00   -7.4813315480E+00   -7.4627210946E+00   -7.4442030309E+00
   -7.4257766031E+00   -7.4074411238E+00   -7.3891959955E+00   -7.3710405552E+00
   -7.3529741401E+00   -7.3349960118E+00   -7.3171055567E+00   -7.2993021880E+00
   -7.2815852737E+00   -7.2639541818E+00   -7.2464081952E+00   -7.2289467557E+00
   -7.2115692930E+00   -7.1942752047E+00   -7.1770638882E+00   -7.1599346534E+00
   -7.1428869795E+00   -7.1259203190E+00   -7.1090340975E+00   -7.0922277404E+00
   -7.0755005898E+00   -7.0588521460E+00   -7.0422818896E+00   -7.0257892731E+00
   -7.0093737487E+00   -6.9930346954E+00   -6.9767716191E+00   -6.9605840341E+00
   -6.9444714181E+00   -6.9284332491E+00   -6.9124689478E+00   -6.8965780111E+00
   -6.8807599917E+00   -6.8650143917E+00   -6.8493407133E+00   -6.8337384238E+00
   -6.8182069977E+00   -6.8027460301E+00   -6.7873550463E+00   -6.7720335718E+00
   -6.7567811250E+00   -6.7415971458E+00   -6.7264812750E+00   -6.7114330602E+00
   -6.6964520487E+00   -6.6815377881E+00   -6.6666897527E+00   -6.6519075519E+00
   -6.6371907807E+00   -6.6225390076E+00   -6.6079518012E+00   -6.5934286960E+00
   -6.5789692378E+00   -6.5645730787E+00   -6.5502398073E+00   -6.5359690124E+00
   -6.5217602825E+00   -6.5076131227E+00   -6.4935272116E+00   -6.4795021673E+00
   -6.4655375979E+00   -6.4516331110E+00   -6.4377882800E+00   -6.4240026952E+00
   -6.4102760412E+00   -6.3966079440E+00   -6.3829980298E+00   -6.3694459246E+00
   -6.3559511841E+00   -6.3425134983E+00   -6.3291325304E+00   -6.3158079242E+00
   -6.3025393231E+00   -6.2893263592E+00   -6.2761686130E+00   -6.2630658209E+00
   -6.2500176430E+00   -6.2370237394E+00   -6.2240837703E+00   -6.2111973605E+00
   -6.1983641600E+00   -6.1855838964E+00   -6.1728562454E+00   -6.1601808832E+00
   -6.1475574856E+00   -6.1349856767E+00   -6.1224651606E+00   -6.1099956611E+00
   -6.0975768692E+00   -6.0852084761E+00   -6.0728901728E+00   -6.0606215884E+00
   -6.0484024660E+00   -6.0362325315E+00   -6.0241114903E+00   -6.0120390479E+00
   -6.0000149098E+00   -5.9880387157E+00   -5.9761102332E+00   -5.9642291961E+00
   -5.9523953235E+00   -5.9406083346E+00   -5.9288679486E+00   -5.9171738205E+00
   -5.9055257298E+00   -5.8939234230E+00   -5.8823666324E+00   -5.8708550903E+00
   -5.8593885289E+00   -5.8479666233E+00   -5.8365891522E+00   -5.8252558802E+00
   -5.8139665519E+00   -5.8027209121E+00   -5.7915187054E+00   -5.7803596316E+00
   -5.7692434571E+00   -5.7581699688E+00   -5.7471389232E+00   -5.7361500770E+00
   -5.7252031868E+00   -5.7142979813E+00   -5.7034342036E+00   -5.6926116672E+00
   -5.6818301399E+00   -5.6710893899E+00   -5.6603891850E+00   -5.6497292873E+00
   -5.6391094065E+00   -5.6285293862E+00   -5.6179890051E+00   -5.6074880421E+00
   -5.5970262760E+00   -5.5866034854E+00   -5.5762193995E+00   -5.5658738336E+00
   -5.5555665970E+00   -5.5452974788E+00   -5.5350662681E+00   -5.5248727539E+00
   -5.5147167072E+00   -5.5045978876E+00   -5.4945161440E+00   -5.4844712754E+00
   -5.4744630805E+00   -5.4644913583E+00   -5.4545559078E+00   -5.4446564786E+00
   -5.4347929081E+00   -5.4249650221E+00   -5.4151726287E+00   -5.4054155363E+00
   -5.3956935531E+00   -5.3860064785E+00   -5.3763540751E+00   -5.3667362156E+00
   -5.3571527174E+00   -5.3476033977E+00   -5.3380880735E+00   -5.3286065623E+00
   -5.3191586520E+00   -5.3097441580E+00   -5.3003629406E+00   -5.2910148256E+00
   -5.2816996387E+00   -5.2724172057E+00   -5.2631673522E+00   -5.2539498611E+00
   -5.2447645871E+00   -5.2356113834E+00   -5.2264900838E+00   -5.2174005222E+00
   -5.2083425324E+00   -5.1993159483E+00   -5.1903205525E+00   -5.1813562272E+00
   -5.1724228231E+00   -5.1635201819E+00   -5.1546481453E+00   -5.1458065546E+00
   -5.1369952517E+00   -5.1282140238E+00   -5.1194627687E+00   -5.1107413400E+00
   -5.1020495867E+00   -5.0933873577E+00   -5.0847545021E+00   -5.0761508687E+00
   -5.0675762542E+00   -5.0590305611E+00   -5.0505136505E+00   -5.0420253783E+00
   -5.0335656007E+00   -5.0251341735E+00   -5.0167309529E+00   -5.0083557486E+00
   -5.0000084579E+00   -4.9916889538E+00
  </PP_LOCAL>
 <PP_NONLOCAL>
   <PP_BETA.1
       type="real"
       size=" 602"
       columns="4"
       index="1"
       angular_momentum="0"
       cutoff_radius_index=" 252"
       cutoff_radius="    2.5100000000E+00" >
    0.0000000000E+00   -2.7096484640E-02   -5.4180706211E-02   -8.1240397404E-02
   -1.0826328247E-01   -1.3523707312E-01   -1.6214946460E-01   -1.8898813190E-01
   -2.1574072630E-01   -2.4239487208E-01   -2.6893816369E-01   -2.9535816324E-01
   -3.2164239838E-01   -3.4777836070E-01   -3.7375350461E-01   -3.9955524677E-01
   -4.2517096604E-01   -4.5058800410E-01   -4.7579366667E-01   -5.0077522541E-01
   -5.2551992047E-01   -5.5001496383E-01   -5.7424754324E-01   -5.9820482704E-01
   -6.2187396964E-01   -6.4524211781E-01   -6.6829641775E-01   -6.9102402286E-01
   -7.1341210243E-01   -7.3544785097E-01   -7.5711849835E-01   -7.7841132071E-01
   -7.9931365213E-01   -8.1981289703E-01   -8.3989654311E-01   -8.5955217540E-01
   -8.7876749026E-01   -8.9753031100E-01   -9.1582860309E-01   -9.3365049046E-01
   -9.5098427247E-01   -9.6781844104E-01   -9.8414169829E-01   -9.9994297467E-01
   -1.0152114475E+00   -1.0299365594E+00   -1.0441080379E+00   -1.0577159137E+00
   -1.0707505413E+00   -1.0832026177E+00   -1.0950632016E+00   -1.1063237326E+00
   -1.1169760530E+00   -1.1270124236E+00   -1.1364255445E+00   -1.1452085754E+00
   -1.1533551488E+00   -1.1608593965E+00   -1.1677159567E+00   -1.1739200023E+00
   -1.1794672472E+00   -1.1843539693E+00   -1.1885770242E+00   -1.1921338534E+00
   -1.1950225103E+00   -1.1972416632E+00   -1.1987906063E+00   -1.1996692797E+00