<UPF version="2.0.1">
  <PP_INFO>

 Nb_ONCV_PBE_FR-1.0.upf

 This pseudopotential file has been produced using the code
 ONCVPSP  (Optimized Norm-Conservinng Vanderbilt PSeudopotential)
 fully-relativistic version 2.1.1, 03/26/2014 by D. R. Hamann
 The code is available through a link at URL www.mat-simresearch.com.
 Documentation with the package provides a full description of the
 input data below.

 While it is not required under the terms of the GNU GPL, it is
 suggested that you cite D. R. Hamann, Phys. Rev. B 88, 085117 (2013)
 in any publication using these pseudopotentials.

 -----

 This pseudopotential was produced with the SG15 1.0 and/or 1.1
 parameter sets, the Schlipf-Gygi norm-conserving pseudopotential
 library. For details of the construction and testing of the
 pseudopotential please refer to:

 M. Schlipf, F. Gygi, Comp. Phys. Comm. 196, 36 (2015)
 http://dx.doi.org/10.1016/j.cpc.2015.05.011

 The above authors kindly ask that you include this reference in all
 publications associated to this pseudopotential.

 Please note this fully-relativistic version does not employ the
 above self-consistent procedure at the fully-relativistic level.

 -----

 This pseudopotential was produced by Peter Scherpelz for the purpose
 of performing GW calculations with spin-orbit-coupling. Please see
 the publication:

 P. Scherpelz, M. Govoni, I. Hamada, G. Galli; J. Chem. Theory Comput. (2016)
 http://dx.doi.org/10.1021/acs.jctc.6b00114

 If you use these pseudopotentials in your work, we also kindly ask
 that you cite the above publication.

 -----

 This work is licensed under the Creative Commons Attribution-ShareAlike 
 4.0 International License. To view a copy of this license, visit 
 http://creativecommons.org/licenses/by-sa/4.0/ or send a letter to 
 Creative Commons, PO Box 1866, Mountain View, CA 94042, USA.

 The SG15 library is Copyright 2015 The Regents of the University of
 California.  Further modifications of these files are Copyright 2016
 Peter Scherpelz.

    <PP_INPUTFILE>
# ATOM AND REFERENCE CONFIGURATION
# atsym  z    nc    nv    iexc   psfile
  Nb 41.00     6     4     4      upf
#
#   n    l    f        energy (Ha)
    1    0    2.00
    2    0    2.00
    2    1    6.00
    3    0    2.00
    3    1    6.00
    3    2   10.00
    4    0    2.00
    4    1    6.00
    5    0    2.00
    4    2    3.00
#
# PSEUDOPOTENTIAL AND OPTIMIZATION
# lmax
    2
#
#   l,   rc,     ep,   ncon, nbas, qcut
    0    1.66   -2.23    5    8    7.08
    1    1.62   -1.33    5    8    7.19
    2    1.64   -0.17    5    8    7.39
#
# LOCAL POTENTIAL
# lloc, lpopt,  rc(5),   dvloc0
    4    5      1.46       0.00
#
# VANDERBILT-KLEINMAN-BYLANDER PROJECTORs
# l, nproj, debl
    0    2    2.0623
    1    2    2.0568
    2    2    1.2501
#
# MODEL CORE CHARGE
# icmod, fcfact
    0    0.00
#
# LOG DERIVATIVE ANALYSIS
# epsh1, epsh2, depsh
   -5.00    3.00    0.02
#
# OUTPUT GRID
# rlmax, drl
    6.00    0.01
#
# TEST CONFIGURATIONS
# ncnf
    0
# nvcnf
#   n    l    f
    </PP_INPUTFILE>
  </PP_INFO>
  <!--                               -->
  <!-- END OF HUMAN READABLE SECTION -->
  <!--                               -->
    <PP_HEADER
       generated="Generated using ONCVPSP code by D. R. Hamann"
       author="anonymous"
       date="150703"
       comment=""
       element="Nb"
       pseudo_type="NC"
       relativistic="full"
       is_ultrasoft="F"
       is_paw="F"
       is_coulomb="F"
       has_so="T"
       has_wfc="F"
       has_gipaw="F"
       core_correction="F"
       functional="PBE"
       z_valence="   13.00"
       total_psenergy="  -5.67198593918E+01"
       rho_cutoff="   6.01000000000E+00"
       l_max="2"
       l_local="-1"
       mesh_size="   602"
       number_of_wfc="0"
       number_of_proj="10"/>
 <PP_MESH>
   <PP_R type="real"  size=" 602" columns="8">
    0.0000    0.0100    0.0200    0.0300    0.0400    0.0500    0.0600    0.0700
    0.0800    0.0900    0.1000    0.1100    0.1200    0.1300    0.1400    0.1500
    0.1600    0.1700    0.1800    0.1900    0.2000    0.2100    0.2200    0.2300
    0.2400    0.2500    0.2600    0.2700    0.2800    0.2900    0.3000    0.3100
    0.3200    0.3300    0.3400    0.3500    0.3600    0.3700    0.3800    0.3900
    0.4000    0.4100    0.4200    0.4300    0.4400    0.4500    0.4600    0.4700
    0.4800    0.4900    0.5000    0.5100    0.5200    0.5300    0.5400    0.5500
    0.5600    0.5700    0.5800    0.5900    0.6000    0.6100    0.6200    0.6300
    0.6400    0.6500    0.6600    0.6700    0.6800    0.6900    0.7000    0.7100
    0.7200    0.7300    0.7400    0.7500    0.7600    0.7700    0.7800    0.7900
    0.8000    0.8100    0.8200    0.8300    0.8400    0.8500    0.8600    0.8700
    0.8800    0.8900    0.9000    0.9100    0.9200    0.9300    0.9400    0.9500
    0.9600    0.9700    0.9800    0.9900    1.0000    1.0100    1.0200    1.0300
    1.0400    1.0500    1.0600    1.0700    1.0800    1.0900    1.1000    1.1100
    1.1200    1.1300    1.1400    1.1500    1.1600    1.1700    1.1800    1.1900
    1.2000    1.2100    1.2200    1.2300    1.2400    1.2500    1.2600    1.2700
    1.2800    1.2900    1.3000    1.3100    1.3200    1.3300    1.3400    1.3500
    1.3600    1.3700    1.3800    1.3900    1.4000    1.4100    1.4200    1.4300
    1.4400    1.4500    1.4600    1.4700    1.4800    1.4900    1.5000    1.5100
    1.5200    1.5300    1.5400    1.5500    1.5600    1.5700    1.5800    1.5900
    1.6000    1.6100    1.6200    1.6300    1.6400    1.6500    1.6600    1.6700
    1.6800    1.6900    1.7000    1.7100    1.7200    1.7300    1.7400    1.7500
    1.7600    1.7700    1.7800    1.7900    1.8000    1.8100    1.8200    1.8300
    1.8400    1.8500    1.8600    1.8700    1.8800    1.8900    1.9000    1.9100
    1.9200    1.9300    1.9400    1.9500    1.9600    1.9700    1.9800    1.9900
    2.0000    2.0100    2.0200    2.0300    2.0400    2.0500    2.0600    2.0700
    2.0800    2.0900    2.1000    2.1100    2.1200    2.1300    2.1400    2.1500
    2.1600    2.1700    2.1800    2.1900    2.2000    2.2100    2.2200    2.2300
    2.2400    2.2500    2.2600    2.2700    2.2800    2.2900    2.3000    2.3100
    2.3200    2.3300    2.3400    2.3500    2.3600    2.3700    2.3800    2.3900
    2.4000    2.4100    2.4200    2.4300    2.4400    2.4500    2.4600    2.4700
    2.4800    2.4900    2.5000    2.5100    2.5200    2.5300    2.5400    2.5500
    2.5600    2.5700    2.5800    2.5900    2.6000    2.6100    2.6200    2.6300
    2.6400    2.6500    2.6600    2.6700    2.6800    2.6900    2.7000    2.7100
    2.7200    2.7300    2.7400    2.7500    2.7600    2.7700    2.7800    2.7900
    2.8000    2.8100    2.8200    2.8300    2.8400    2.8500    2.8600    2.8700
    2.8800    2.8900    2.9000    2.9100    2.9200    2.9300    2.9400    2.9500
    2.9600    2.9700    2.9800    2.9900    3.0000    3.0100    3.0200    3.0300
    3.0400    3.0500    3.0600    3.0700    3.0800    3.0900    3.1000    3.1100
    3.1200    3.1300    3.1400    3.1500    3.1600    3.1700    3.1800    3.1900
    3.2000    3.2100    3.2200    3.2300    3.2400    3.2500    3.2600    3.2700
    3.2800    3.2900    3.3000    3.3100    3.3200    3.3300    3.3400    3.3500
    3.3600    3.3700    3.3800    3.3900    3.4000    3.4100    3.4200    3.4300
    3.4400    3.4500    3.4600    3.4700    3.4800    3.4900    3.5000    3.5100
    3.5200    3.5300    3.5400    3.5500    3.5600    3.5700    3.5800    3.5900
    3.6000    3.6100    3.6200    3.6300    3.6400    3.6500    3.6600    3.6700
    3.6800    3.6900    3.7000    3.7100    3.7200    3.7300    3.7400    3.7500
    3.7600    3.7700    3.7800    3.7900    3.8000    3.8100    3.8200    3.8300
    3.8400    3.8500    3.8600    3.8700    3.8800    3.8900    3.9000    3.9100
    3.9200    3.9300    3.9400    3.9500    3.9600    3.9700    3.9800    3.9900
    4.0000    4.0100    4.0200    4.0300    4.0400    4.0500    4.0600    4.0700
    4.0800    4.0900    4.1000    4.1100    4.1200    4.1300    4.1400    4.1500
    4.1600    4.1700    4.1800    4.1900    4.2000    4.2100    4.2200    4.2300
    4.2400    4.2500    4.2600    4.2700    4.2800    4.2900    4.3000    4.3100
    4.3200    4.3300    4.3400    4.3500    4.3600    4.3700    4.3800    4.3900
    4.4000    4.4100    4.4200    4.4300    4.4400    4.4500    4.4600    4.4700
    4.4800    4.4900    4.5000    4.5100    4.5200    4.5300    4.5400    4.5500
    4.5600    4.5700    4.5800    4.5900    4.6000    4.6100    4.6200    4.6300
    4.6400    4.6500    4.6600    4.6700    4.6800    4.6900    4.7000    4.7100
    4.7200    4.7300    4.7400    4.7500    4.7600    4.7700    4.7800    4.7900
    4.8000    4.8100    4.8200    4.8300    4.8400    4.8500    4.8600    4.8700
    4.8800    4.8900    4.9000    4.9100    4.9200    4.9300    4.9400    4.9500
    4.9600    4.9700    4.9800    4.9900    5.0000    5.0100    5.0200    5.0300
    5.0400    5.0500    5.0600    5.0700    5.0800    5.0900    5.1000    5.1100
    5.1200    5.1300    5.1400    5.1500    5.1600    5.1700    5.1800    5.1900
    5.2000    5.2100    5.2200    5.2300    5.2400    5.2500    5.2600    5.2700
    5.2800    5.2900    5.3000    5.3100    5.3200    5.3300    5.3400    5.3500
    5.3600    5.3700    5.3800    5.3900    5.4000    5.4100    5.4200    5.4300
    5.4400    5.4500    5.4600    5.4700    5.4800    5.4900    5.5000    5.5100
    5.5200    5.5300    5.5400    5.5500    5.5600    5.5700    5.5800    5.5900
    5.6000    5.6100    5.6200    5.6300    5.6400    5.6500    5.6600    5.6700
    5.6800    5.6900    5.7000    5.7100    5.7200    5.7300    5.7400    5.7500
    5.7600    5.7700    5.7800    5.7900    5.8000    5.8100    5.8200    5.8300
    5.8400    5.8500    5.8600    5.8700    5.8800    5.8900    5.9000    5.9100
    5.9200    5.9300    5.9400    5.9500    5.9600    5.9700    5.9800    5.9900
    6.0000    6.0100
   </PP_R>
   <PP_RAB type="real"  size=" 602" columns="8">
    0.0100    0.0100    0.0100    0.0100    0.0100    0.0100    0.0100    0.0100
    0.0100    0.0100    0.0100    0.0100    0.0100    0.0100    0.0100    0.0100
    0.0100    0.0100    0.0100    0.0100    0.0100    0.0100    0.0100    0.0100
    0.0100    0.0100    0.0100    0.0100    0.0100    0.0100    0.0100    0.0100
    0.0100    0.0100    0.0100    0.0100    0.0100    0.0100    0.0100    0.0100
    0.0100    0.0100    0.0100    0.0100    0.0100    0.0100    0.0100    0.0100
    0.0100    0.0100    0.0100    0.0100    0.0100    0.0100    0.0100    0.0100
    0.0100    0.0100    0.0100    0.0100    0.0100    0.0100    0.0100    0.0100
    0.0100    0.0100    0.0100    0.0100    0.0100    0.0100    0.0100    0.0100
    0.0100    0.0100    0.0100    0.0100    0.0100    0.0100    0.0100    0.0100
    0.0100    0.0100    0.0100    0.0100    0.0100    0.0100    0.0100    0.0100
    0.0100    0.0100    0.0100    0.0100    0.0100    0.0100    0.0100    0.0100
    0.0100    0.0100    0.0100    0.0100    0.0100    0.0100    0.0100    0.0100
    0.0100    0.0100    0.0100    0.0100    0.0100    0.0100    0.0100    0.0100
    0.0100    0.0100    0.0100    0.0100    0.0100    0.0100    0.0100    0.0100
    0.0100    0.0100    0.0100    0.0100    0.0100    0.0100    0.0100    0.0100
    0.0100    0.0100    0.0100    0.0100    0.0100    0.0100    0.0100    0.0100
    0.0100    0.0100    0.0100    0.0100    0.0100    0.0100    0.0100    0.0100
    0.0100    0.0100    0.0100    0.0100    0.0100    0.0100    0.0100    0.0100
    0.0100    0.0100    0.0100    0.0100    0.0100    0.0100    0.0100    0.0100
    0.0100    0.0100    0.0100    0.0100    0.0100    0.0100    0.0100    0.0100
    0.0100    0.0100    0.0100    0.0100    0.0100    0.0100    0.0100    0.0100
    0.0100    0.0100    0.0100    0.0100    0.0100    0.0100    0.0100    0.0100
    0.0100    0.0100    0.0100    0.0100    0.0100    0.0100    0.0100    0.0100
    0.0100    0.0100    0.0100    0.0100    0.0100    0.0100    0.0100    0.0100
    0.0100    0.0100    0.0100    0.0100    0.0100    0.0100    0.0100    0.0100
    0.0100    0.0100    0.0100    0.0100    0.0100    0.0100    0.0100    0.0100
    0.0100    0.0100    0.0100    0.0100    0.0100    0.0100    0.0100    0.0100
    0.0100    0.0100    0.0100    0.0100    0.0100    0.0100    0.0100    0.0100
    0.0100    0.0100    0.0100    0.0100    0.0100    0.0100    0.0100    0.0100
    0.0100    0.0100    0.0100    0.0100    0.0100    0.0100    0.0100    0.0100
    0.0100    0.0100    0.0100    0.0100    0.0100    0.0100    0.0100    0.0100
    0.0100    0.0100    0.0100    0.0100    0.0100    0.0100    0.0100    0.0100
    0.0100    0.0100    0.0100    0.0100    0.0100    0.0100    0.0100    0.0100
    0.0100    0.0100    0.0100    0.0100    0.0100    0.0100    0.0100    0.0100
    0.0100    0.0100    0.0100    0.0100    0.0100    0.0100    0.0100    0.0100
    0.0100    0.0100    0.0100    0.0100    0.0100    0.0100    0.0100    0.0100
    0.0100    0.0100    0.0100    0.0100    0.0100    0.0100    0.0100    0.0100
    0.0100    0.0100    0.0100    0.0100    0.0100    0.0100    0.0100    0.0100
    0.0100    0.0100    0.0100    0.0100    0.0100    0.0100    0.0100    0.0100
    0.0100    0.0100    0.0100    0.0100    0.0100    0.0100    0.0100    0.0100
    0.0100    0.0100    0.0100    0.0100    0.0100    0.0100    0.0100    0.0100
    0.0100    0.0100    0.0100    0.0100    0.0100    0.0100    0.0100    0.0100
    0.0100    0.0100    0.0100    0.0100    0.0100    0.0100    0.0100    0.0100
    0.0100    0.0100    0.0100    0.0100    0.0100    0.0100    0.0100    0.0100
    0.0100    0.0100    0.0100    0.0100    0.0100    0.0100    0.0100    0.0100
    0.0100    0.0100    0.0100    0.0100    0.0100    0.0100    0.0100    0.0100
    0.0100    0.0100    0.0100    0.0100    0.0100    0.0100    0.0100    0.0100
    0.0100    0.0100    0.0100    0.0100    0.0100    0.0100    0.0100    0.0100
    0.0100    0.0100    0.0100    0.0100    0.0100    0.0100    0.0100    0.0100
    0.0100    0.0100    0.0100    0.0100    0.0100    0.0100    0.0100    0.0100
    0.0100    0.0100    0.0100    0.0100    0.0100    0.0100    0.0100    0.0100
    0.0100    0.0100    0.0100    0.0100    0.0100    0.0100    0.0100    0.0100
    0.0100    0.0100    0.0100    0.0100    0.0100    0.0100    0.0100    0.0100
    0.0100    0.0100    0.0100    0.0100    0.0100    0.0100    0.0100    0.0100
    0.0100    0.0100    0.0100    0.0100    0.0100    0.0100    0.0100    0.0100
    0.0100    0.0100    0.0100    0.0100    0.0100    0.0100    0.0100    0.0100
    0.0100    0.0100    0.0100    0.0100    0.0100    0.0100    0.0100    0.0100
    0.0100    0.0100    0.0100    0.0100    0.0100    0.0100    0.0100    0.0100
    0.0100    0.0100    0.0100    0.0100    0.0100    0.0100    0.0100    0.0100
    0.0100    0.0100    0.0100    0.0100    0.0100    0.0100    0.0100    0.0100
    0.0100    0.0100    0.0100    0.0100    0.0100    0.0100    0.0100    0.0100
    0.0100    0.0100    0.0100    0.0100    0.0100    0.0100    0.0100    0.0100
    0.0100    0.0100    0.0100    0.0100    0.0100    0.0100    0.0100    0.0100
    0.0100    0.0100    0.0100    0.0100    0.0100    0.0100    0.0100    0.0100
    0.0100    0.0100    0.0100    0.0100    0.0100    0.0100    0.0100    0.0100
    0.0100    0.0100    0.0100    0.0100    0.0100    0.0100    0.0100    0.0100
    0.0100    0.0100    0.0100    0.0100    0.0100    0.0100    0.0100    0.0100
    0.0100    0.0100    0.0100    0.0100    0.0100    0.0100    0.0100    0.0100
    0.0100    0.0100    0.0100    0.0100    0.0100    0.0100    0.0100    0.0100
    0.0100    0.0100    0.0100    0.0100    0.0100    0.0100    0.0100    0.0100
    0.0100    0.0100    0.0100    0.0100    0.0100    0.0100    0.0100    0.0100
    0.0100    0.0100    0.0100    0.0100    0.0100    0.0100    0.0100    0.0100
    0.0100    0.0100    0.0100    0.0100    0.0100    0.0100    0.0100    0.0100
    0.0100    0.0100    0.0100    0.0100    0.0100    0.0100    0.0100    0.0100
    0.0100    0.0100
   </PP_RAB>
 </PP_MESH>
  <PP_LOCAL type="real"  size=" 602" columns="4">
   -7.5581998541E+01   -5.0010245068E+01   -4.0618799748E+01   -3.9705477053E+01
   -3.9568091451E+01   -3.9506041096E+01   -3.9456555318E+01   -3.9411236045E+01
   -3.9368265819E+01   -3.9327093208E+01   -3.9287553999E+01   -3.9249615842E+01
   -3.9213257095E+01   -3.9178395362E+01   -3.9144843333E+01   -3.9112282968E+01
   -3.9080253540E+01   -3.9048151104E+01   -3.9015237809E+01   -3.8980659874E+01
   -3.8943473050E+01   -3.8902674134E+01   -3.8857236965E+01   -3.8806151023E+01
   -3.8748460639E+01   -3.8683302641E+01   -3.8609940617E+01   -3.8527793598E+01
   -3.8436457816E+01   -3.8335720322E+01   -3.8225563660E+01   -3.8106161403E+01
   -3.7977864886E+01   -3.7841181882E+01   -3.7696749617E+01   -3.7545301934E+01
   -3.7387635435E+01   -3.7224574663E+01   -3.7056940020E+01   -3.6885519499E+01
   -3.6711046119E+01   -3.6534181513E+01   -3.6355505893E+01   -3.6175513924E+01
   -3.5994615625E+01   -3.5813141128E+01   -3.5631348095E+01   -3.5449430626E+01
   -3.5267528705E+01   -3.5085737526E+01   -3.4904115515E+01   -3.4722692327E+01
   -3.4541475107E+01   -3.4360453334E+01   -3.4179603348E+01   -3.3998891450E+01
   -3.3818276285E+01   -3.3637710881E+01   -3.3457143824E+01   -3.3276520458E+01
   -3.3095783544E+01   -3.2914873923E+01   -3.2733731035E+01   -3.2552293336E+01
   -3.2370498786E+01   -3.2188285269E+01   -3.2005591089E+01   -3.1822355446E+01
   -3.1638518929E+01   -3.1454024133E+01   -3.1268816177E+01   -3.1082843253E+01
   -3.0896057207E+01   -3.0708414026E+01   -3.0519874583E+01   -3.0330405016E+01
   -3.0139977272E+01   -2.9948569617E+01   -2.9756167117E+01   -2.9562762091E+01
   -2.9368354548E+01   -2.9172952579E+01   -2.8976572716E+01   -2.8779240239E+01
   -2.8580989414E+01   -2.8381863657E+01   -2.8181915602E+01   -2.7981207057E+01
   -2.7779808834E+01   -2.7577800450E+01   -2.7375269678E+01   -2.7172311955E+01
   -2.6969029655E+01   -2.6765531226E+01   -2.6561930217E+01   -2.6358344220E+01
   -2.6154893740E+01   -2.5951701048E+01   -2.5748889091E+01   -2.5546580219E+01
   -2.5344895118E+01   -2.5143951827E+01   -2.4943864838E+01   -2.4744744327E+01
   -2.4546695910E+01   -2.4349818829E+01   -2.4154206662E+01   -2.3959946749E+01
   -2.3767120136E+01   -2.3575801811E+01   -2.3386059107E+01   -2.3197953567E+01
   -2.3011540613E+01   -2.2826870434E+01   -2.2643986044E+01   -2.2462925678E+01
   -2.2283722749E+01   -2.2106406314E+01   -2.1930999719E+01   -2.1757522971E+01
   -2.1585992821E+01   -2.1416421748E+01   -2.1248819103E+01   -2.1083191934E+01
   -2.0919544429E+01   -2.0757877909E+01   -2.0598192168E+01   -2.0440484966E+01
   -2.0284751701E+01   -2.0130986763E+01   -1.9979182890E+01   -1.9829330991E+01
   -1.9681421289E+01   -1.9535442367E+01   -1.9391381435E+01   -1.9249225216E+01
   -1.9108958385E+01   -1.8970564805E+01   -1.8834027466E+01   -1.8699327074E+01
   -1.8566444063E+01   -1.8435356572E+01   -1.8306041212E+01   -1.8178473824E+01
   -1.8052626560E+01   -1.7928471716E+01   -1.7805977109E+01   -1.7685111371E+01
   -1.7565841995E+01   -1.7448139350E+01   -1.7331973868E+01   -1.7217319045E+01
   -1.7104147801E+01   -1.6992435406E+01   -1.6882156877E+01   -1.6773288446E+01
   -1.6665806421E+01   -1.6559687582E+01   -1.6454908712E+01   -1.6351446767E+01
   -1.6249278334E+01   -1.6148380033E+01   -1.6048728232E+01   -1.5950298774E+01
   -1.5853069653E+01   -1.5757017978E+01   -1.5662123035E+01   -1.5568363121E+01
   -1.5475718589E+01   -1.5384168737E+01   -1.5293695194E+01   -1.5204278628E+01
   -1.5115901181E+01   -1.5028544144E+01   -1.4942190608E+01   -1.4856822842E+01
   -1.4772424605E+01   -1.4688979035E+01   -1.4606470510E+01   -1.4524883031E+01
   -1.4444201525E+01   -1.4364410850E+01   -1.4285496415E+01   -1.4207443920E+01
   -1.4130239199E+01   -1.4053868778E+01   -1.3978318867E+01   -1.3903576791E+01
   -1.3829629121E+01   -1.3756463811E+01   -1.3684068120E+01   -1.3612430247E+01
   -1.3541538255E+01   -1.3471380526E+01   -1.3401945923E+01   -1.3333222979E+01
   -1.3265201257E+01   -1.3197869649E+01   -1.3131218067E+01   -1.3065236100E+01
   -1.2999913701E+01   -1.2935241244E+01   -1.2871208693E+01   -1.2807807043E+01
   -1.2745026681E+01   -1.2682858712E+01   -1.2621294251E+01   -1.2560324324E+01
   -1.2499940717E+01   -1.2440134649E+01   -1.2380898142E+01   -1.2322223068E+01
   -1.2264101292E+01   -1.2206525353E+01   -1.2149487259E+01   -1.2092979738E+01
   -1.2036995444E+01   -1.1981526886E+01   -1.1926567315E+01   -1.1872109499E+01
   -1.1818146689E+01   -1.1764672333E+01   -1.1711679429E+01   -1.1659161896E+01
   -1.1607113236E+01   -1.1555527068E+01   -1.1504397524E+01   -1.1453718306E+01
   -1.1403483611E+01   -1.1353687751E+01   -1.1304324648E+01   -1.1255389009E+01
   -1.1206875261E+01   -1.1158777740E+01   -1.1111091414E+01   -1.1063810881E+01
   -1.1016930913E+01   -1.0970446662E+01   -1.0924352922E+01   -1.0878644855E+01
   -1.0833317792E+01   -1.0788366725E+01   -1.0743787160E+01   -1.0699574605E+01
   -1.0655724251E+01   -1.0612231905E+01   -1.0569093251E+01   -1.0526303681E+01
   -1.0483859260E+01   -1.0441755849E+01   -1.0399989041E+01   -1.0358555121E+01
   -1.0317450128E+01   -1.0276669858E+01   -1.0236210776E+01   -1.0196069108E+01
   -1.0156240837E+01   -1.0116722591E+01   -1.0077510774E+01   -1.0038601563E+01
   -9.9999917113E+00   -9.9616778069E+00   -9.9236562180E+00   -9.8859237948E+00
   -9.8484773098E+00   -9.8113133234E+00   -9.7744287547E+00   -9.7378205606E+00
   -9.7014854959E+00   -9.6654205222E+00   -9.6296227801E+00   -9.5940892209E+00
   -9.5588168254E+00   -9.5238029154E+00   -9.4890446402E+00   -9.4545389815E+00
   -9.4202834368E+00   -9.3862753016E+00   -9.3525117032E+00   -9.3189901491E+00
   -9.2857081126E+00   -9.2526629170E+00   -9.2198520133E+00   -9.1872730638E+00
   -9.1549235927E+00   -9.1228009805E+00   -9.0909030693E+00   -9.0592275152E+00
   -9.0277718358E+00   -8.9965338282E+00   -8.9655113271E+00   -8.9347020511E+00
   -8.9041036808E+00   -8.8737142388E+00   -8.8435315945E+00   -8.8135534738E+00
   -8.7837779074E+00   -8.7542029178E+00   -8.7248264331E+00   -8.6956463302E+00
   -8.6666608225E+00   -8.6378679733E+00   -8.6092657269E+00   -8.5808522500E+00
   -8.5526257672E+00   -8.5245844293E+00   -8.4967262196E+00   -8.4690495504E+00
   -8.4415526612E+00   -8.4142337265E+00   -8.3870909629E+00   -8.3601228077E+00
   -8.3333275824E+00   -8.3067034943E+00   -8.2802489663E+00   -8.2539624606E+00
   -8.2278423771E+00   -8.2018869648E+00   -8.1760948229E+00   -8.1504644431E+00
   -8.1249942808E+00   -8.0996826908E+00   -8.0745283635E+00   -8.0495298442E+00
   -8.0246856329E+00   -7.9999942194E+00   -7.9754543350E+00   -7.9510645929E+00
   -7.9268235434E+00   -7.9027297880E+00   -7.8787821029E+00   -7.8549791658E+00
   -7.8313195824E+00   -7.8078020436E+00   -7.7844253748E+00   -7.7611883152E+00
   -7.7380895306E+00   -7.7151277803E+00   -7.6923019431E+00   -7.6696108171E+00
   -7.6470531324E+00   -7.6246276967E+00   -7.6023334468E+00   -7.5801692367E+00
   -7.5581338650E+00   -7.5362261694E+00   -7.5144451484E+00   -7.4927897097E+00
   -7.4712587240E+00   -7.4498510420E+00   -7.4285657275E+00   -7.4074017390E+00
   -7.3863580236E+00   -7.3654334292E+00   -7.3446270874E+00   -7.3239380052E+00
   -7.3033651896E+00   -7.2829075328E+00   -7.2625641751E+00   -7.2423341897E+00
   -7.2222166299E+00   -7.2022104711E+00   -7.1823148129E+00   -7.1625288089E+00
   -7.1428515563E+00   -7.1232821186E+00   -7.1038195415E+00   -7.0844630600E+00
   -7.0652118134E+00   -7.0460649410E+00   -7.0270214728E+00   -7.0080806765E+00
   -6.9892417473E+00   -6.9705038647E+00   -6.9518661518E+00   -6.9333277925E+00
   -6.9148880730E+00   -6.8965462109E+00   -6.8783014241E+00   -6.8601528158E+00
   -6.8420997488E+00   -6.8241414811E+00   -6.8062772670E+00   -6.7885063090E+00
   -6.7708278598E+00   -6.7532412757E+00   -6.7357458456E+00   -6.7183408584E+00
   -6.7010255073E+00   -6.6837991854E+00   -6.6666612335E+00   -6.6496109737E+00
   -6.6326477057E+00   -6.6157706898E+00   -6.5989793692E+00   -6.5822730976E+00
   -6.5656512287E+00   -6.5491130613E+00   -6.5326579617E+00   -6.5162853702E+00
   -6.4999946702E+00   -6.4837852458E+00   -6.4676564017E+00   -6.4516075921E+00
   -6.4356382584E+00   -6.4197478132E+00   -6.4039356688E+00   -6.3882011426E+00
   -6.3725437583E+00   -6.3569629642E+00   -6.3414582003E+00   -6.3260289014E+00
   -6.3106744174E+00   -6.2953943098E+00   -6.2801880446E+00   -6.2650550877E+00
   -6.2499948934E+00   -6.2350068543E+00   -6.2200905486E+00   -6.2052454672E+00
   -6.1904711008E+00   -6.1757669278E+00   -6.1611323696E+00   -6.1465670251E+00
   -6.1320704089E+00   -6.1176420354E+00   -6.1032814121E+00   -6.0889879750E+00
   -6.0747613482E+00   -6.0606010688E+00   -6.0465066740E+00   -6.0324777010E+00
   -6.0185135985E+00   -6.0046140088E+00   -5.9907784943E+00   -5.9770066137E+00
   -5.9632979257E+00   -5.9496519173E+00   -5.9360682154E+00   -5.9225464186E+00
   -5.9090861063E+00   -5.8956868578E+00   -5.8823482026E+00   -5.8690697403E+00
   -5.8558511096E+00   -5.8426919096E+00   -5.8295917392E+00   -5.8165501743E+00
   -5.8035667769E+00   -5.7906412288E+00   -5.7777731476E+00   -5.7649621508E+00
   -5.7522078561E+00   -5.7395098056E+00   -5.7268676990E+00   -5.7142811806E+00
   -5.7017498858E+00   -5.6892734500E+00   -5.6768514691E+00   -5.6644835816E+00
   -5.6521694840E+00   -5.6399088286E+00   -5.6277012678E+00   -5.6155464540E+00
   -5.6034439612E+00   -5.5913935342E+00   -5.5793948430E+00   -5.5674475564E+00
   -5.5555513429E+00   -5.5437058369E+00   -5.5319107018E+00   -5.5201656671E+00
   -5.5084704170E+00   -5.4968246354E+00   -5.4852280064E+00   -5.4736801521E+00
   -5.4621808144E+00   -5.4507297075E+00   -5.4393265303E+00   -5.4279709813E+00
   -5.4166627508E+00   -5.4054014811E+00   -5.3941869513E+00   -5.3830188741E+00
   -5.3718969623E+00   -5.3608209287E+00   -5.3497904597E+00   -5.3388052512E+00
   -5.3278650771E+00   -5.3169696634E+00   -5.3061187364E+00   -5.2953120223E+00
   -5.2845492090E+00   -5.2738300330E+00   -5.2631542674E+00   -5.2525216512E+00
   -5.2419319234E+00   -5.2313848229E+00   -5.2208800442E+00   -5.2104173515E+00
   -5.1999965224E+00   -5.1896173080E+00   -5.1792794593E+00   -5.1689827274E+00
   -5.1587268179E+00   -5.1485115112E+00   -5.1383365936E+00   -5.1282018277E+00
   -5.1181069762E+00   -5.1080518019E+00   -5.0980360255E+00   -5.0880594325E+00
   -5.0781218223E+00   -5.0682229686E+00   -5.0583626452E+00   -5.0485406259E+00
   -5.0387566508E+00   -5.0290104998E+00   -5.0193019898E+00   -5.0096309049E+00
   -4.9999970294E+00   -4.9904001477E+00   -4.9808400233E+00   -4.9713164207E+00
   -4.9618291777E+00   -4.9523780887E+00   -4.9429629479E+00   -4.9335835499E+00
   -4.9242396849E+00   -4.9149310935E+00   -4.9056576377E+00   -4.8964191214E+00
   -4.8872153485E+00   -4.8780461229E+00   -4.8689112486E+00   -4.8598104850E+00
   -4.8507436701E+00   -4.8417106336E+00   -4.8327111888E+00   -4.8237451486E+00
   -4.8148123261E+00   -4.8059125154E+00   -4.7970455101E+00   -4.7882111730E+00
   -4.7794093257E+00   -4.7706397900E+00   -4.7619023878E+00   -4.7531969407E+00
   -4.7445232225E+00   -4.7358810994E+00   -4.7272704117E+00   -4.7186909894E+00
   -4.7101426628E+00   -4.7016252617E+00   -4.6931386014E+00   -4.6846824867E+00
   -4.6762567976E+00   -4.6678613721E+00   -4.6594960481E+00   -4.6511606638E+00
   -4.6428550570E+00   -4.6345790314E+00   -4.6263324422E+00   -4.6181151566E+00
   -4.6099270200E+00   -4.6017678780E+00   -4.5936375761E+00   -4.5855359599E+00
   -4.5774628268E+00   -4.5694180707E+00   -4.5614015503E+00   -4.5534131183E+00
   -4.5454526274E+00   -4.5375199305E+00   -4.5296148756E+00   -4.5217372725E+00
   -4.5138870287E+00   -4.5060640039E+00   -4.4982680576E+00   -4.4904990495E+00
   -4.4827568392E+00   -4.4750412759E+00   -4.4673521893E+00   -4.4596894869E+00
   -4.4520530349E+00   -4.4444426993E+00   -4.4368583464E+00   -4.4292998423E+00
   -4.4217670414E+00   -4.4142597840E+00   -4.4067779812E+00   -4.3993215055E+00
   -4.3918902292E+00   -4.3844840247E+00   -4.3771027644E+00   -4.3697463120E+00
   -4.3624145088E+00   -4.3551072738E+00   -4.3478244853E+00   -4.3405660215E+00
   -4.3333317609E+00   -4.3261215817E+00
  </PP_LOCAL>
 <PP_NONLOCAL>
   <PP_BETA.1
       type="real"
       size=" 602"
       columns="4"
       index="1"
       angular_momentum="0"
       cutoff_radius_index=" 170"
       cutoff_radius="    1.6900000000E+00" >
    0.0000000000E+00   -1.0376931522E-02   -2.0492616860E-02   -3.0089121419E-02
   -3.8915099332E-02   -4.6729002054E-02   -5.3302184967E-02   -5.8421879577E-02
   -6.1894000181E-02   -6.3545755528E-02   -6.3228037938E-02   -6.0817564458E-02
   -5.6218747188E-02   -4.9365272428E-02   -4.0221371527E-02   -2.8782768628E-02
   -1.5077294838E-02    8.3483980092E-04    1.8861120018E-02    3.8877146372E-02
    6.0727401144E-02    8.4226352660E-02    1.0915988886E-01    1.3528706820E-01
    1.6234217084E-01    1.9003702965E-01    2.1806362842E-01    2.4609692733E-01
    2.7379789963E-01    3.0081675098E-01    3.2679628644E-01    3.5137539443E-01
    3.7419261214E-01    3.9488970255E-01    4.1311537159E-01    4.2852873272E-01
    4.4080299943E-01    4.4962878191E-01    4.5471751211E-01    4.5580457538E-01
    4.5265223778E-01    4.4505240268E-01    4.3282909612E-01    4.1584067322E-01
    3.9398172351E-01    3.6718465518E-01    3.3542094079E-01    2.9870200885E-01
    2.5707976586E-01    2.1064669217E-01    1.5953585765E-01    1.0392010071E-01
    4.4011071732E-02   -1.9941855844E-02   -8.7653486523E-02   -1.5880470144E-01
   -2.3304478544E-01   -3.0999403099E-01   -3.8924672912E-01   -4.7037410782E-01
   -5.5292794368E-01   -6.3644395728E-01   -7.2044529378E-01   -8.0444705451E-01
   -8.8795931204E-01   -9.7049141407E-01   -1.0515565212E+00   -1.1306746984E+00