<UPF version="2.0.1">
  <PP_INFO>

 Rb_ONCV_PBE_FR-1.0.upf

 This pseudopotential file has been produced using the code
 ONCVPSP  (Optimized Norm-Conservinng Vanderbilt PSeudopotential)
 fully-relativistic version 2.1.1, 03/26/2014 by D. R. Hamann
 The code is available through a link at URL www.mat-simresearch.com.
 Documentation with the package provides a full description of the
 input data below.

 While it is not required under the terms of the GNU GPL, it is
 suggested that you cite D. R. Hamann, Phys. Rev. B 88, 085117 (2013)
 in any publication using these pseudopotentials.

 -----

 This pseudopotential was produced with the SG15 1.0 and/or 1.1
 parameter sets, the Schlipf-Gygi norm-conserving pseudopotential
 library. For details of the construction and testing of the
 pseudopotential please refer to:

 M. Schlipf, F. Gygi, Comp. Phys. Comm. 196, 36 (2015)
 http://dx.doi.org/10.1016/j.cpc.2015.05.011

 The above authors kindly ask that you include this reference in all
 publications associated to this pseudopotential.

 Please note this fully-relativistic version does not employ the
 above self-consistent procedure at the fully-relativistic level.

 -----

 This pseudopotential was produced by Peter Scherpelz for the purpose
 of performing GW calculations with spin-orbit-coupling. Please see
 the publication:

 P. Scherpelz, M. Govoni, I. Hamada, G. Galli; J. Chem. Theory Comput. (2016)
 http://dx.doi.org/10.1021/acs.jctc.6b00114

 If you use these pseudopotentials in your work, we also kindly ask
 that you cite the above publication.

 -----

 This work is licensed under the Creative Commons Attribution-ShareAlike 
 4.0 International License. To view a copy of this license, visit 
 http://creativecommons.org/licenses/by-sa/4.0/ or send a letter to 
 Creative Commons, PO Box 1866, Mountain View, CA 94042, USA.

 The SG15 library is Copyright 2015 The Regents of the University of
 California.  Further modifications of these files are Copyright 2016
 Peter Scherpelz.

    <PP_INPUTFILE>
# ATOM AND REFERENCE CONFIGURATION
# atsym  z    nc    nv    iexc   psfile
  Rb 37.00     6     3     4      upf
#
#   n    l    f        energy (Ha)
    1    0    2.00
    2    0    2.00
    2    1    6.00
    3    0    2.00
    3    1    6.00
    3    2   10.00
    4    0    2.00
    4    1    6.00
    5    0    1.00
#
# PSEUDOPOTENTIAL AND OPTIMIZATION
# lmax
    2
#
#   l,   rc,     ep,   ncon, nbas, qcut
    0    3.18   -1.17    5    8    5.07
    1    3.00   -0.58    5    8    5.66
    2    2.89    0.16    5    8    6.13
#
# LOCAL POTENTIAL
# lloc, lpopt,  rc(5),   dvloc0
    4    5      2.39       0.00
#
# VANDERBILT-KLEINMAN-BYLANDER PROJECTORs
# l, nproj, debl
    0    2    1.0896
    1    2    1.1813
    2    2    1.2251
#
# MODEL CORE CHARGE
# icmod, fcfact
    0    0.00
#
# LOG DERIVATIVE ANALYSIS
# epsh1, epsh2, depsh
   -5.00    3.00    0.02
#
# OUTPUT GRID
# rlmax, drl
    6.00    0.01
#
# TEST CONFIGURATIONS
# ncnf
    0
# nvcnf
#   n    l    f
    </PP_INPUTFILE>
  </PP_INFO>
  <!--                               -->
  <!-- END OF HUMAN READABLE SECTION -->
  <!--                               -->
    <PP_HEADER
       generated="Generated using ONCVPSP code by D. R. Hamann"
       author="anonymous"
       date="150703"
       comment=""
       element="Rb"
       pseudo_type="NC"
       relativistic="full"
       is_ultrasoft="F"
       is_paw="F"
       is_coulomb="F"
       has_so="T"
       has_wfc="F"
       has_gipaw="F"
       core_correction="F"
       functional="PBE"
       z_valence="    9.00"
       total_psenergy="  -2.44276367855E+01"
       rho_cutoff="   6.01000000000E+00"
       l_max="2"
       l_local="-1"
       mesh_size="   602"
       number_of_wfc="0"
       number_of_proj="10"/>
 <PP_MESH>
   <PP_R type="real"  size=" 602" columns="8">
    0.0000    0.0100    0.0200    0.0300    0.0400    0.0500    0.0600    0.0700
    0.0800    0.0900    0.1000    0.1100    0.1200    0.1300    0.1400    0.1500
    0.1600    0.1700    0.1800    0.1900    0.2000    0.2100    0.2200    0.2300
    0.2400    0.2500    0.2600    0.2700    0.2800    0.2900    0.3000    0.3100
    0.3200    0.3300    0.3400    0.3500    0.3600    0.3700    0.3800    0.3900
    0.4000    0.4100    0.4200    0.4300    0.4400    0.4500    0.4600    0.4700
    0.4800    0.4900    0.5000    0.5100    0.5200    0.5300    0.5400    0.5500
    0.5600    0.5700    0.5800    0.5900    0.6000    0.6100    0.6200    0.6300
    0.6400    0.6500    0.6600    0.6700    0.6800    0.6900    0.7000    0.7100
    0.7200    0.7300    0.7400    0.7500    0.7600    0.7700    0.7800    0.7900
    0.8000    0.8100    0.8200    0.8300    0.8400    0.8500    0.8600    0.8700
    0.8800    0.8900    0.9000    0.9100    0.9200    0.9300    0.9400    0.9500
    0.9600    0.9700    0.9800    0.9900    1.0000    1.0100    1.0200    1.0300
    1.0400    1.0500    1.0600    1.0700    1.0800    1.0900    1.1000    1.1100
    1.1200    1.1300    1.1400    1.1500    1.1600    1.1700    1.1800    1.1900
    1.2000    1.2100    1.2200    1.2300    1.2400    1.2500    1.2600    1.2700
    1.2800    1.2900    1.3000    1.3100    1.3200    1.3300    1.3400    1.3500
    1.3600    1.3700    1.3800    1.3900    1.4000    1.4100    1.4200    1.4300
    1.4400    1.4500    1.4600    1.4700    1.4800    1.4900    1.5000    1.5100
    1.5200    1.5300    1.5400    1.5500    1.5600    1.5700    1.5800    1.5900
    1.6000    1.6100    1.6200    1.6300    1.6400    1.6500    1.6600    1.6700
    1.6800    1.6900    1.7000    1.7100    1.7200    1.7300    1.7400    1.7500
    1.7600    1.7700    1.7800    1.7900    1.8000    1.8100    1.8200    1.8300
    1.8400    1.8500    1.8600    1.8700    1.8800    1.8900    1.9000    1.9100
    1.9200    1.9300    1.9400    1.9500    1.9600    1.9700    1.9800    1.9900
    2.0000    2.0100    2.0200    2.0300    2.0400    2.0500    2.0600    2.0700
    2.0800    2.0900    2.1000    2.1100    2.1200    2.1300    2.1400    2.1500
    2.1600    2.1700    2.1800    2.1900    2.2000    2.2100    2.2200    2.2300
    2.2400    2.2500    2.2600    2.2700    2.2800    2.2900    2.3000    2.3100
    2.3200    2.3300    2.3400    2.3500    2.3600    2.3700    2.3800    2.3900
    2.4000    2.4100    2.4200    2.4300    2.4400    2.4500    2.4600    2.4700
    2.4800    2.4900    2.5000    2.5100    2.5200    2.5300    2.5400    2.5500
    2.5600    2.5700    2.5800    2.5900    2.6000    2.6100    2.6200    2.6300
    2.6400    2.6500    2.6600    2.6700    2.6800    2.6900    2.7000    2.7100
    2.7200    2.7300    2.7400    2.7500    2.7600    2.7700    2.7800    2.7900
    2.8000    2.8100    2.8200    2.8300    2.8400    2.8500    2.8600    2.8700
    2.8800    2.8900    2.9000    2.9100    2.9200    2.9300    2.9400    2.9500
    2.9600    2.9700    2.9800    2.9900    3.0000    3.0100    3.0200    3.0300
    3.0400    3.0500    3.0600    3.0700    3.0800    3.0900    3.1000    3.1100
    3.1200    3.1300    3.1400    3.1500    3.1600    3.1700    3.1800    3.1900
    3.2000    3.2100    3.2200    3.2300    3.2400    3.2500    3.2600    3.2700
    3.2800    3.2900    3.3000    3.3100    3.3200    3.3300    3.3400    3.3500
    3.3600    3.3700    3.3800    3.3900    3.4000    3.4100    3.4200    3.4300
    3.4400    3.4500    3.4600    3.4700    3.4800    3.4900    3.5000    3.5100
    3.5200    3.5300    3.5400    3.5500    3.5600    3.5700    3.5800    3.5900
    3.6000    3.6100    3.6200    3.6300    3.6400    3.6500    3.6600    3.6700
    3.6800    3.6900    3.7000    3.7100    3.7200    3.7300    3.7400    3.7500
    3.7600    3.7700    3.7800    3.7900    3.8000    3.8100    3.8200    3.8300
    3.8400    3.8500    3.8600    3.8700    3.8800    3.8900    3.9000    3.9100
    3.9200    3.9300    3.9400    3.9500    3.9600    3.9700    3.9800    3.9900
    4.0000    4.0100    4.0200    4.0300    4.0400    4.0500    4.0600    4.0700
    4.0800    4.0900    4.1000    4.1100    4.1200    4.1300    4.1400    4.1500
    4.1600    4.1700    4.1800    4.1900    4.2000    4.2100    4.2200    4.2300
    4.2400    4.2500    4.2600    4.2700    4.2800    4.2900    4.3000    4.3100
    4.3200    4.3300    4.3400    4.3500    4.3600    4.3700    4.3800    4.3900
    4.4000    4.4100    4.4200    4.4300    4.4400    4.4500    4.4600    4.4700
    4.4800    4.4900    4.5000    4.5100    4.5200    4.5300    4.5400    4.5500
    4.5600    4.5700    4.5800    4.5900    4.6000    4.6100    4.6200    4.6300
    4.6400    4.6500    4.6600    4.6700    4.6800    4.6900    4.7000    4.7100
    4.7200    4.7300    4.7400    4.7500    4.7600    4.7700    4.7800    4.7900
    4.8000    4.8100    4.8200    4.8300    4.8400    4.8500    4.8600    4.8700
    4.8800    4.8900    4.9000    4.9100    4.9200    4.9300    4.9400    4.9500
    4.9600    4.9700    4.9800    4.9900    5.0000    5.0100    5.0200    5.0300
    5.0400    5.0500    5.0600    5.0700    5.0800    5.0900    5.1000    5.1100
    5.1200    5.1300    5.1400    5.1500    5.1600    5.1700    5.1800    5.1900
    5.2000    5.2100    5.2200    5.2300    5.2400    5.2500    5.2600    5.2700
    5.2800    5.2900    5.3000    5.3100    5.3200    5.3300    5.3400    5.3500
    5.3600    5.3700    5.3800    5.3900    5.4000    5.4100    5.4200    5.4300
    5.4400    5.4500    5.4600    5.4700    5.4800    5.4900    5.5000    5.5100
    5.5200    5.5300    5.5400    5.5500    5.5600    5.5700    5.5800    5.5900
    5.6000    5.6100    5.6200    5.6300    5.6400    5.6500    5.6600    5.6700
    5.6800    5.6900    5.7000    5.7100    5.7200    5.7300    5.7400    5.7500
    5.7600    5.7700    5.7800    5.7900    5.8000    5.8100    5.8200    5.8300
    5.8400    5.8500    5.8600    5.8700    5.8800    5.8900    5.9000    5.9100
    5.9200    5.9300    5.9400    5.9500    5.9600    5.9700    5.9800    5.9900
    6.0000    6.0100
   </PP_R>
   <PP_RAB type="real"  size=" 602" columns="8">
    0.0100    0.0100    0.0100    0.0100    0.0100    0.0100    0.0100    0.0100
    0.0100    0.0100    0.0100    0.0100    0.0100    0.0100    0.0100    0.0100
    0.0100    0.0100    0.0100    0.0100    0.0100    0.0100    0.0100    0.0100
    0.0100    0.0100    0.0100    0.0100    0.0100    0.0100    0.0100    0.0100
    0.0100    0.0100    0.0100    0.0100    0.0100    0.0100    0.0100    0.0100
    0.0100    0.0100    0.0100    0.0100    0.0100    0.0100    0.0100    0.0100
    0.0100    0.0100    0.0100    0.0100    0.0100    0.0100    0.0100    0.0100
    0.0100    0.0100    0.0100    0.0100    0.0100    0.0100    0.0100    0.0100
    0.0100    0.0100    0.0100    0.0100    0.0100    0.0100    0.0100    0.0100
    0.0100    0.0100    0.0100    0.0100    0.0100    0.0100    0.0100    0.0100
    0.0100    0.0100    0.0100    0.0100    0.0100    0.0100    0.0100    0.0100
    0.0100    0.0100    0.0100    0.0100    0.0100    0.0100    0.0100    0.0100
    0.0100    0.0100    0.0100    0.0100    0.0100    0.0100    0.0100    0.0100
    0.0100    0.0100    0.0100    0.0100    0.0100    0.0100    0.0100    0.0100
    0.0100    0.0100    0.0100    0.0100    0.0100    0.0100    0.0100    0.0100
    0.0100    0.0100    0.0100    0.0100    0.0100    0.0100    0.0100    0.0100
    0.0100    0.0100    0.0100    0.0100    0.0100    0.0100    0.0100    0.0100
    0.0100    0.0100    0.0100    0.0100    0.0100    0.0100    0.0100    0.0100
    0.0100    0.0100    0.0100    0.0100    0.0100    0.0100    0.0100    0.0100
    0.0100    0.0100    0.0100    0.0100    0.0100    0.0100    0.0100    0.0100
    0.0100    0.0100    0.0100    0.0100    0.0100    0.0100    0.0100    0.0100
    0.0100    0.0100    0.0100    0.0100    0.0100    0.0100    0.0100    0.0100
    0.0100    0.0100    0.0100    0.0100    0.0100    0.0100    0.0100    0.0100
    0.0100    0.0100    0.0100    0.0100    0.0100    0.0100    0.0100    0.0100
    0.0100    0.0100    0.0100    0.0100    0.0100    0.0100    0.0100    0.0100
    0.0100    0.0100    0.0100    0.0100    0.0100    0.0100    0.0100    0.0100
    0.0100    0.0100    0.0100    0.0100    0.0100    0.0100    0.0100    0.0100
    0.0100    0.0100    0.0100    0.0100    0.0100    0.0100    0.0100    0.0100
    0.0100    0.0100    0.0100    0.0100    0.0100    0.0100    0.0100    0.0100
    0.0100    0.0100    0.0100    0.0100    0.0100    0.0100    0.0100    0.0100
    0.0100    0.0100    0.0100    0.0100    0.0100    0.0100    0.0100    0.0100
    0.0100    0.0100    0.0100    0.0100    0.0100    0.0100    0.0100    0.0100
    0.0100    0.0100    0.0100    0.0100    0.0100    0.0100    0.0100    0.0100
    0.0100    0.0100    0.0100    0.0100    0.0100    0.0100    0.0100    0.0100
    0.0100    0.0100    0.0100    0.0100    0.0100    0.0100    0.0100    0.0100
    0.0100    0.0100    0.0100    0.0100    0.0100    0.0100    0.0100    0.0100
    0.0100    0.0100    0.0100    0.0100    0.0100    0.0100    0.0100    0.0100
    0.0100    0.0100    0.0100    0.0100    0.0100    0.0100    0.0100    0.0100
    0.0100    0.0100    0.0100    0.0100    0.0100    0.0100    0.0100    0.0100
    0.0100    0.0100    0.0100    0.0100    0.0100    0.0100    0.0100    0.0100
    0.0100    0.0100    0.0100    0.0100    0.0100    0.0100    0.0100    0.0100
    0.0100    0.0100    0.0100    0.0100    0.0100    0.0100    0.0100    0.0100
    0.0100    0.0100    0.0100    0.0100    0.0100    0.0100    0.0100    0.0100
    0.0100    0.0100    0.0100    0.0100    0.0100    0.0100    0.0100    0.0100
    0.0100    0.0100    0.0100    0.0100    0.0100    0.0100    0.0100    0.0100
    0.0100    0.0100    0.0100    0.0100    0.0100    0.0100    0.0100    0.0100
    0.0100    0.0100    0.0100    0.0100    0.0100    0.0100    0.0100    0.0100
    0.0100    0.0100    0.0100    0.0100    0.0100    0.0100    0.0100    0.0100
    0.0100    0.0100    0.0100    0.0100    0.0100    0.0100    0.0100    0.0100
    0.0100    0.0100    0.0100    0.0100    0.0100    0.0100    0.0100    0.0100
    0.0100    0.0100    0.0100    0.0100    0.0100    0.0100    0.0100    0.0100
    0.0100    0.0100    0.0100    0.0100    0.0100    0.0100    0.0100    0.0100
    0.0100    0.0100    0.0100    0.0100    0.0100    0.0100    0.0100    0.0100
    0.0100    0.0100    0.0100    0.0100    0.0100    0.0100    0.0100    0.0100
    0.0100    0.0100    0.0100    0.0100    0.0100    0.0100    0.0100    0.0100
    0.0100    0.0100    0.0100    0.0100    0.0100    0.0100    0.0100    0.0100
    0.0100    0.0100    0.0100    0.0100    0.0100    0.0100    0.0100    0.0100
    0.0100    0.0100    0.0100    0.0100    0.0100    0.0100    0.0100    0.0100
    0.0100    0.0100    0.0100    0.0100    0.0100    0.0100    0.0100    0.0100
    0.0100    0.0100    0.0100    0.0100    0.0100    0.0100    0.0100    0.0100
    0.0100    0.0100    0.0100    0.0100    0.0100    0.0100    0.0100    0.0100
    0.0100    0.0100    0.0100    0.0100    0.0100    0.0100    0.0100    0.0100
    0.0100    0.0100    0.0100    0.0100    0.0100    0.0100    0.0100    0.0100
    0.0100    0.0100    0.0100    0.0100    0.0100    0.0100    0.0100    0.0100
    0.0100    0.0100    0.0100    0.0100    0.0100    0.0100    0.0100    0.0100
    0.0100    0.0100    0.0100    0.0100    0.0100    0.0100    0.0100    0.0100
    0.0100    0.0100    0.0100    0.0100    0.0100    0.0100    0.0100    0.0100
    0.0100    0.0100    0.0100    0.0100    0.0100    0.0100    0.0100    0.0100
    0.0100    0.0100    0.0100    0.0100    0.0100    0.0100    0.0100    0.0100
    0.0100    0.0100    0.0100    0.0100    0.0100    0.0100    0.0100    0.0100
    0.0100    0.0100    0.0100    0.0100    0.0100    0.0100    0.0100    0.0100
    0.0100    0.0100    0.0100    0.0100    0.0100    0.0100    0.0100    0.0100
    0.0100    0.0100    0.0100    0.0100    0.0100    0.0100    0.0100    0.0100
    0.0100    0.0100    0.0100    0.0100    0.0100    0.0100    0.0100    0.0100
    0.0100    0.0100    0.0100    0.0100    0.0100    0.0100    0.0100    0.0100
    0.0100    0.0100
   </PP_RAB>
 </PP_MESH>
  <PP_LOCAL type="real"  size=" 602" columns="4">
   -1.7183554114E+01   -1.7183549283E+01   -1.7183594322E+01   -1.7183623806E+01
   -1.7183572309E+01   -1.7183353829E+01   -1.7182866738E+01   -1.7181999330E+01
   -1.7180635505E+01   -1.7178660176E+01   -1.7175964051E+01   -1.7172447557E+01
   -1.7168023759E+01   -1.7162620270E+01   -1.7156180186E+01   -1.7148662177E+01
   -1.7140039886E+01   -1.7130300807E+01   -1.7119444804E+01   -1.7107482432E+01
   -1.7094433174E+01   -1.7080323703E+01   -1.7065186238E+01   -1.7049057047E+01
   -1.7031975124E+01   -1.7013981039E+01   -1.6995115990E+01   -1.6975421010E+01
   -1.6954936348E+01   -1.6933700982E+01   -1.6911752259E+01   -1.6889125631E+01
   -1.6865854483E+01   -1.6841970027E+01   -1.6817501254E+01   -1.6792474919E+01
   -1.6766915573E+01   -1.6740845605E+01   -1.6714285315E+01   -1.6687252987E+01
   -1.6659764982E+01   -1.6631835822E+01   -1.6603478290E+01   -1.6574703525E+01
   -1.6545521114E+01   -1.6515939191E+01   -1.6485964527E+01   -1.6455602618E+01
   -1.6424857776E+01   -1.6393733218E+01   -1.6362231153E+01   -1.6330352853E+01
   -1.6298098741E+01   -1.6265468478E+01   -1.6232461023E+01   -1.6199074722E+01
   -1.6165307377E+01   -1.6131156316E+01   -1.6096618467E+01   -1.6061690426E+01
   -1.6026368521E+01   -1.5990648880E+01   -1.5954527491E+01   -1.5918000267E+01
   -1.5881063098E+01   -1.5843711915E+01   -1.5805942736E+01   -1.5767751719E+01
   -1.5729135215E+01   -1.5690089805E+01   -1.5650612347E+01   -1.5610700005E+01
   -1.5570350302E+01   -1.5529561137E+01   -1.5488330816E+01   -1.5446658078E+01
   -1.5404542114E+01   -1.5361982586E+01   -1.5318979636E+01   -1.5275533910E+01
   -1.5231646554E+01   -1.5187319217E+01   -1.5142554054E+01   -1.5097353728E+01
   -1.5051721398E+01   -1.5005660717E+01   -1.4959175820E+01   -1.4912271311E+01
   -1.4864952252E+01   -1.4817224144E+01   -1.4769092911E+01   -1.4720564884E+01
   -1.4671646769E+01   -1.4622345653E+01   -1.4572668959E+01   -1.4522624432E+01
   -1.4472220121E+01   -1.4421464350E+01   -1.4370365701E+01   -1.4318932992E+01
   -1.4267175250E+01   -1.4215101702E+01   -1.4162721752E+01   -1.4110044955E+01
   -1.4057080997E+01   -1.4003839684E+01   -1.3950330913E+01   -1.3896564680E+01
   -1.3842551041E+01   -1.3788300103E+01   -1.3733822012E+01   -1.3679126942E+01
   -1.3624225082E+01   -1.3569126621E+01   -1.3513841739E+01   -1.3458380605E+01
   -1.3402753352E+01   -1.3346970082E+01   -1.3291040861E+01   -1.3234975697E+01
   -1.3178784540E+01   -1.3122477289E+01   -1.3066063775E+01   -1.3009553742E+01
   -1.2952956871E+01   -1.2896282777E+01   -1.2839540955E+01   -1.2782740837E+01
   -1.2725891785E+01   -1.2669003017E+01   -1.2612083694E+01   -1.2555142892E+01
   -1.2498189536E+01   -1.2441232502E+01   -1.2384280548E+01   -1.2327342296E+01
   -1.2270426333E+01   -1.2213541065E+01   -1.2156694821E+01   -1.2099895859E+01
   -1.2043152240E+01   -1.1986472010E+01   -1.1929863031E+01   -1.1873333073E+01
   -1.1816889836E+01   -1.1760540808E+01   -1.1704293488E+01   -1.1648155133E+01
   -1.1592132971E+01   -1.1536234081E+01   -1.1480465393E+01   -1.1424833808E+01
   -1.1369345961E+01   -1.1314008558E+01   -1.1258827968E+01   -1.1203810633E+01
   -1.1148962718E+01   -1.1094290373E+01   -1.1039799557E+01   -1.0985496128E+01
   -1.0931385831E+01   -1.0877474234E+01   -1.0823766864E+01   -1.0770268997E+01
   -1.0716985933E+01   -1.0663922664E+01   -1.0611084253E+01   -1.0558475410E+01
   -1.0506100952E+01   -1.0453965315E+01   -1.0402073059E+01   -1.0350428351E+01
   -1.0299035482E+01   -1.0247898362E+01   -1.0197021002E+01   -1.0146407063E+01
   -1.0096060259E+01   -1.0045984019E+01   -9.9961817462E+00   -9.9466566493E+00
   -9.8974118059E+00   -9.8484502224E+00   -9.7997746329E+00   -9.7513878595E+00
   -9.7032922786E+00   -9.6554905430E+00   -9.6079846953E+00   -9.5607771301E+00
   -9.5138696764E+00   -9.4672643714E+00   -9.4209629113E+00   -9.3749669362E+00
   -9.3292780376E+00   -9.2838974433E+00   -9.2388266580E+00   -9.1940665569E+00
   -9.1496183808E+00   -9.1054828723E+00   -9.0616608646E+00   -9.0181530667E+00
   -8.9749598686E+00   -8.9320819622E+00   -8.8895193935E+00   -8.8472725627E+00
   -8.8053414835E+00   -8.7637261130E+00   -8.7224265037E+00   -8.6814422173E+00
   -8.6407731622E+00   -8.6004187749E+00   -8.5603785578E+00   -8.5206520339E+00
   -8.4812382971E+00   -8.4421367738E+00   -8.4033464351E+00   -8.3648663030E+00
   -8.3266954793E+00   -8.2888325943E+00   -8.2512765999E+00   -8.2140261005E+00
   -8.1770795999E+00   -8.1404358790E+00   -8.1040930935E+00   -8.0680497072E+00
   -8.0323040513E+00   -7.9968541206E+00   -7.9616982411E+00   -7.9268342908E+00
   -7.8922601171E+00   -7.8579738787E+00   -7.8239730140E+00   -7.7902552933E+00
   -7.7568184565E+00   -7.7236597327E+00   -7.6907767274E+00   -7.6581667393E+00
   -7.6258267824E+00   -7.5937542605E+00   -7.5619460367E+00   -7.5303989270E+00
   -7.4991098825E+00   -7.4680757585E+00   -7.4372934295E+00   -7.4067595509E+00
   -7.3764714152E+00   -7.3464260636E+00   -7.3166203927E+00   -7.2870518673E+00
   -7.2577177013E+00   -7.2286150276E+00   -7.1997414408E+00   -7.1710943153E+00
   -7.1426709715E+00   -7.1144691202E+00   -7.0864862826E+00   -7.0587199252E+00
   -7.0311678626E+00   -7.0038277482E+00   -6.9766971613E+00   -6.9497740092E+00
   -6.9230560633E+00   -6.8965409892E+00   -6.8702267776E+00   -6.8441112962E+00
   -6.8181923035E+00   -6.7924678390E+00   -6.7669358577E+00   -6.7415942195E+00
   -6.7164409829E+00   -6.6914741902E+00   -6.6666917947E+00   -6.6420918653E+00
   -6.6176725293E+00   -6.5934318296E+00   -6.5693678365E+00   -6.5454787628E+00
   -6.5217627438E+00   -6.4982178385E+00   -6.4748423500E+00   -6.4516344850E+00
   -6.4285923626E+00   -6.4057142968E+00   -6.3829985878E+00   -6.3604434544E+00
   -6.3380471743E+00   -6.3158081617E+00   -6.2937247537E+00   -6.2717951679E+00
   -6.2500179431E+00   -6.2283914920E+00   -6.2069141406E+00   -6.1855843708E+00
   -6.1644007331E+00   -6.1433616978E+00   -6.1224656490E+00   -6.1017112852E+00
   -6.0810971738E+00   -6.0606217916E+00   -6.0402837789E+00   -6.0200818376E+00
   -6.0000146032E+00   -5.9800806127E+00   -5.9602786780E+00   -5.9406074996E+00
   -5.9210657256E+00   -5.9016520675E+00   -5.8823653451E+00   -5.8632043132E+00
   -5.8441676222E+00   -5.8252541529E+00   -5.8064627483E+00   -5.7877922097E+00
   -5.7692412682E+00   -5.7508089003E+00   -5.7324939771E+00   -5.7142953224E+00
   -5.6962118002E+00   -5.6782424090E+00   -5.6603860733E+00   -5.6426416457E+00
   -5.6250081053E+00   -5.6074844730E+00   -5.5900697230E+00   -5.5727627415E+00
   -5.5555626030E+00   -5.5384683534E+00   -5.5214790141E+00   -5.5045935062E+00
   -5.4878109841E+00   -5.4711305236E+00   -5.4545511908E+00   -5.4380719495E+00
   -5.4216920144E+00   -5.4054104961E+00   -5.3892264996E+00   -5.3731390446E+00
   -5.3571473810E+00   -5.3412506607E+00   -5.3254480312E+00   -5.3097385536E+00
   -5.2941215159E+00   -5.2785961095E+00   -5.2631615259E+00   -5.2478168592E+00
   -5.2325614335E+00   -5.2173944793E+00   -5.2023152258E+00   -5.1873228159E+00
   -5.1724165841E+00   -5.1575958073E+00   -5.1428597508E+00   -5.1282076089E+00
   -5.1136387149E+00   -5.0991523949E+00   -5.0847479481E+00   -5.0704246235E+00
   -5.0561817420E+00   -5.0420186809E+00   -5.0279347722E+00   -5.0139293222E+00
   -5.0000016294E+00   -4.9861511240E+00   -4.9723771690E+00   -4.9586791275E+00
   -4.9450562771E+00   -4.9315080917E+00   -4.9180339669E+00   -4.9046332955E+00
   -4.8913054160E+00   -4.8780497573E+00   -4.8648657756E+00   -4.8517528918E+00
   -4.8387105091E+00   -4.8257380034E+00   -4.8128348909E+00   -4.8000006196E+00
   -4.7872346376E+00   -4.7745363306E+00   -4.7619052054E+00   -4.7493407581E+00
   -4.7368424624E+00   -4.7244097732E+00   -4.7120421252E+00   -4.6997390798E+00
   -4.6875001356E+00   -4.6753247908E+00   -4.6632124907E+00   -4.6511627735E+00
   -4.6391751891E+00   -4.6272492592E+00   -4.6153845030E+00   -4.6035803708E+00
   -4.5918364809E+00   -4.5801523775E+00   -4.5685276044E+00   -4.5569616781E+00
   -4.5454541277E+00   -4.5340045681E+00   -4.5226125646E+00   -4.5112776826E+00
   -4.4999994407E+00   -4.4887774337E+00   -4.4776112764E+00   -4.4665005542E+00
   -4.4554448528E+00   -4.4444436976E+00   -4.4334967366E+00   -4.4226035878E+00
   -4.4117638560E+00   -4.4009771461E+00   -4.3902429945E+00   -4.3795610901E+00
   -4.3689310581E+00   -4.3583525217E+00   -4.3478250995E+00   -4.3373483561E+00
   -4.3269219966E+00   -4.3165456615E+00   -4.3062189918E+00   -4.2959416213E+00
   -4.2857131385E+00   -4.2755332614E+00   -4.2654016476E+00   -4.2553179546E+00
   -4.2452818351E+00   -4.2352928913E+00   -4.2253508578E+00   -4.2154554078E+00
   -4.2056062149E+00   -4.1958029525E+00   -4.1860452311E+00   -4.1763328008E+00
   -4.1666653514E+00   -4.1570425715E+00   -4.1474641498E+00   -4.1379297220E+00
   -4.1284390311E+00   -4.1189917908E+00   -4.1095877042E+00   -4.1002264746E+00
   -4.0909077660E+00   -4.0816313056E+00   -4.0723968338E+00   -4.0632040679E+00
   -4.0540527246E+00   -4.0449424993E+00   -4.0358730958E+00   -4.0268442838E+00
   -4.0178557933E+00   -4.0089073545E+00   -3.9999986966E+00   -3.9911294936E+00
   -3.9822995456E+00   -3.9735085952E+00   -3.9647563853E+00   -3.9560426586E+00
   -3.9473671218E+00   -3.9387295386E+00   -3.9301296860E+00   -3.9215673190E+00
   -3.9130421921E+00   -3.9045540513E+00   -3.8961026143E+00   -3.8876876947E+00
   -3.8793090587E+00   -3.8709664726E+00   -3.8626597024E+00   -3.8543884797E+00
   -3.8461525910E+00   -3.8379518343E+00   -3.8297859867E+00   -3.8216548253E+00
   -3.8135581256E+00   -3.8054956147E+00   -3.7974671318E+00   -3.7894724642E+00
   -3.7815113994E+00   -3.7735837250E+00   -3.7656892089E+00   -3.7578276279E+00
   -3.7499988129E+00   -3.7422025613E+00   -3.7344386705E+00   -3.7267069379E+00
   -3.7190071281E+00   -3.7113390579E+00   -3.7037025531E+00   -3.6960974207E+00
   -3.6885234675E+00   -3.6809805002E+00   -3.6734682840E+00   -3.6659866662E+00
   -3.6585354710E+00   -3.6511145144E+00   -3.6437236122E+00   -3.6363625801E+00
   -3.6290311873E+00   -3.6217293025E+00   -3.6144567519E+00   -3.6072133601E+00
   -3.5999989514E+00   -3.5928133492E+00   -3.5856563325E+00   -3.5785277804E+00
   -3.5714275253E+00   -3.5643554000E+00   -3.5573112368E+00   -3.5502948681E+00
   -3.5433060809E+00   -3.5363447615E+00   -3.5294107501E+00   -3.5225038873E+00
   -3.5156240133E+00   -3.5087709685E+00   -3.5019445514E+00   -3.4951446476E+00
   -3.4883711083E+00   -3.4816237814E+00   -3.4749025148E+00   -3.4682071562E+00
   -3.4615375191E+00   -3.4548934805E+00   -3.4482749058E+00   -3.4416816500E+00
   -3.4351135678E+00   -3.4285705144E+00   -3.4220523208E+00   -3.4155588488E+00
   -3.4090899805E+00   -3.4026455775E+00   -3.3962255014E+00   -3.3898296140E+00
   -3.3834577669E+00   -3.3771098005E+00   -3.3707856156E+00   -3.3644850802E+00
   -3.3582080626E+00   -3.3519544308E+00   -3.3457240530E+00   -3.3395167618E+00
   -3.3333324597E+00   -3.3271710271E+00   -3.3210323384E+00   -3.3149162676E+00
   -3.3088226893E+00   -3.3027514613E+00   -3.2967024517E+00   -3.2906755652E+00
   -3.2846706819E+00   -3.2786876821E+00   -3.2727264458E+00   -3.2667868532E+00
   -3.2608687503E+00   -3.2549720502E+00   -3.2490966445E+00   -3.2432424187E+00
   -3.2374092585E+00   -3.2315970498E+00   -3.2258056685E+00   -3.2200349820E+00
   -3.2142849105E+00   -3.2085553450E+00   -3.2028461766E+00   -3.1971572963E+00
   -3.1914885951E+00   -3.1858399431E+00   -3.1802112379E+00   -3.1746023927E+00
   -3.1690133036E+00   -3.1634438666E+00   -3.1578939781E+00   -3.1523635339E+00
   -3.1468524016E+00   -3.1413605012E+00   -3.1358877421E+00   -3.1304340252E+00
   -3.1249992514E+00   -3.1195833218E+00   -3.1141861372E+00   -3.1088075655E+00
   -3.1034475420E+00   -3.0981059753E+00   -3.0927827708E+00   -3.0874778340E+00
   -3.0821910707E+00   -3.0769223863E+00   -3.0716716519E+00   -3.0664388113E+00
   -3.0612237749E+00   -3.0560264528E+00   -3.0508467549E+00   -3.0456845912E+00
   -3.0405398716E+00   -3.0354124730E+00   -3.0303023412E+00   -3.0252093917E+00
   -3.0201335384E+00   -3.0150746957E+00   -3.0100327776E+00   -3.0050076983E+00
   -2.9999993431E+00   -2.9950076537E+00
  </PP_LOCAL>
 <PP_NONLOCAL>
   <PP_BETA.1
       type="real"
       size=" 602"
       columns="4"
       index="1"
       angular_momentum="0"
       cutoff_radius_index=" 322"
       cutoff_radius="    3.2100000000E+00" >
    0.0000000000E+00    2.1349840835E-02    4.2668360140E-02    6.3924274739E-02
    8.5086378134E-02    1.0612357879E-01    1.2700493837E-01    1.4769970984E-01
    1.6817737549E-01    1.8840768486E-01    2.0836069240E-01    2.2800679507E-01
    2.4731676964E-01    2.6626180981E-01    2.8481356304E-01    3.0294416712E-01
    3.2062628639E-01    3.3783314763E-01    3.5453857561E-01    3.7071702817E-01
    3.8634363093E-01    4.0139421141E-01    4.1584533286E-01    4.2967432725E-01
    4.4285932802E-01    4.5537930188E-01    4.6721408024E-01    4.7834438963E-01
    4.8875188183E-01    4.9841916279E-01    5.0732982090E-01    5.1546845435E-01
    5.2282069789E-01    5.2937324814E-01    5.3511388781E-01    5.4003151016E-01
    5.4411614011E-01    5.4735895661E-01    5.4975231215E-01    5.5128975152E-01
    5.5196602934E-01    5.5177712672E-01    5.5072026563E-01    5.4879392234E-01
    5.4599783940E-01    5.4233303593E-01    5.3780181634E-01    5.3240777809E-01
    5.2615581672E-01    5.1905212974E-01    5.1110421831E-01    5.0232088871E-01
    4.9271225036E-01    4.8228971128E-01    4.7106597517E-01    4.5905503229E-01
    4.4627215139E-01    4.3273386851E-01    4.1845797386E-01    4.0346349689E-01
    3.8777068916E-01    3.7140100592E-01    3.5437708321E-01    3.3672271751E-01
    3.1846283832E-01    2.9962348030E-01    2.8023175723E-01    2.6031582964E-01