<UPF version="2.0.1">
  <PP_INFO>

 Ru_ONCV_PBE_FR-1.0.upf

 This pseudopotential file has been produced using the code
 ONCVPSP  (Optimized Norm-Conservinng Vanderbilt PSeudopotential)
 fully-relativistic version 2.1.1, 03/26/2014 by D. R. Hamann
 The code is available through a link at URL www.mat-simresearch.com.
 Documentation with the package provides a full description of the
 input data below.

 While it is not required under the terms of the GNU GPL, it is
 suggested that you cite D. R. Hamann, Phys. Rev. B 88, 085117 (2013)
 in any publication using these pseudopotentials.

 -----

 This pseudopotential was produced with the SG15 1.0 and/or 1.1
 parameter sets, the Schlipf-Gygi norm-conserving pseudopotential
 library. For details of the construction and testing of the
 pseudopotential please refer to:

 M. Schlipf, F. Gygi, Comp. Phys. Comm. 196, 36 (2015)
 http://dx.doi.org/10.1016/j.cpc.2015.05.011

 The above authors kindly ask that you include this reference in all
 publications associated to this pseudopotential.

 Please note this fully-relativistic version does not employ the
 above self-consistent procedure at the fully-relativistic level.

 -----

 This pseudopotential was produced by Peter Scherpelz for the purpose
 of performing GW calculations with spin-orbit-coupling. Please see
 the publication:

 P. Scherpelz, M. Govoni, I. Hamada, G. Galli; J. Chem. Theory Comput. (2016)
 http://dx.doi.org/10.1021/acs.jctc.6b00114

 If you use these pseudopotentials in your work, we also kindly ask
 that you cite the above publication.

 -----

 This work is licensed under the Creative Commons Attribution-ShareAlike 
 4.0 International License. To view a copy of this license, visit 
 http://creativecommons.org/licenses/by-sa/4.0/ or send a letter to 
 Creative Commons, PO Box 1866, Mountain View, CA 94042, USA.

 The SG15 library is Copyright 2015 The Regents of the University of
 California.  Further modifications of these files are Copyright 2016
 Peter Scherpelz.

    <PP_INPUTFILE>
# ATOM AND REFERENCE CONFIGURATION
# atsym  z    nc    nv    iexc   psfile
  Ru 44.00     6     4     4      upf
#
#   n    l    f        energy (Ha)
    1    0    2.00
    2    0    2.00
    2    1    6.00
    3    0    2.00
    3    1    6.00
    3    2   10.00
    4    0    2.00
    4    1    6.00
    5    0    2.00
    4    2    6.00
#
# PSEUDOPOTENTIAL AND OPTIMIZATION
# lmax
    2
#
#   l,   rc,     ep,   ncon, nbas, qcut
    0    2.58   -2.93    5    8    5.63
    1    2.52   -1.78    5    8    5.80
    2    2.61   -0.28    5    8    5.78
#
# LOCAL POTENTIAL
# lloc, lpopt,  rc(5),   dvloc0
    4    5      1.53       0.00
#
# VANDERBILT-KLEINMAN-BYLANDER PROJECTORs
# l, nproj, debl
    0    2    2.7369
    1    2    1.9664
    2    2    1.5766
#
# MODEL CORE CHARGE
# icmod, fcfact
    0    0.00
#
# LOG DERIVATIVE ANALYSIS
# epsh1, epsh2, depsh
   -5.00    3.00    0.02
#
# OUTPUT GRID
# rlmax, drl
    6.00    0.01
#
# TEST CONFIGURATIONS
# ncnf
    0
# nvcnf
#   n    l    f
    </PP_INPUTFILE>
  </PP_INFO>
  <!--                               -->
  <!-- END OF HUMAN READABLE SECTION -->
  <!--                               -->
    <PP_HEADER
       generated="Generated using ONCVPSP code by D. R. Hamann"
       author="anonymous"
       date="150703"
       comment=""
       element="Ru"
       pseudo_type="NC"
       relativistic="full"
       is_ultrasoft="F"
       is_paw="F"
       is_coulomb="F"
       has_so="T"
       has_wfc="F"
       has_gipaw="F"
       core_correction="F"
       functional="PBE"
       z_valence="   16.00"
       total_psenergy="  -9.39180050861E+01"
       rho_cutoff="   6.01000000000E+00"
       l_max="2"
       l_local="-1"
       mesh_size="   602"
       number_of_wfc="0"
       number_of_proj="10"/>
 <PP_MESH>
   <PP_R type="real"  size=" 602" columns="8">
    0.0000    0.0100    0.0200    0.0300    0.0400    0.0500    0.0600    0.0700
    0.0800    0.0900    0.1000    0.1100    0.1200    0.1300    0.1400    0.1500
    0.1600    0.1700    0.1800    0.1900    0.2000    0.2100    0.2200    0.2300
    0.2400    0.2500    0.2600    0.2700    0.2800    0.2900    0.3000    0.3100
    0.3200    0.3300    0.3400    0.3500    0.3600    0.3700    0.3800    0.3900
    0.4000    0.4100    0.4200    0.4300    0.4400    0.4500    0.4600    0.4700
    0.4800    0.4900    0.5000    0.5100    0.5200    0.5300    0.5400    0.5500
    0.5600    0.5700    0.5800    0.5900    0.6000    0.6100    0.6200    0.6300
    0.6400    0.6500    0.6600    0.6700    0.6800    0.6900    0.7000    0.7100
    0.7200    0.7300    0.7400    0.7500    0.7600    0.7700    0.7800    0.7900
    0.8000    0.8100    0.8200    0.8300    0.8400    0.8500    0.8600    0.8700
    0.8800    0.8900    0.9000    0.9100    0.9200    0.9300    0.9400    0.9500
    0.9600    0.9700    0.9800    0.9900    1.0000    1.0100    1.0200    1.0300
    1.0400    1.0500    1.0600    1.0700    1.0800    1.0900    1.1000    1.1100
    1.1200    1.1300    1.1400    1.1500    1.1600    1.1700    1.1800    1.1900
    1.2000    1.2100    1.2200    1.2300    1.2400    1.2500    1.2600    1.2700
    1.2800    1.2900    1.3000    1.3100    1.3200    1.3300    1.3400    1.3500
    1.3600    1.3700    1.3800    1.3900    1.4000    1.4100    1.4200    1.4300
    1.4400    1.4500    1.4600    1.4700    1.4800    1.4900    1.5000    1.5100
    1.5200    1.5300    1.5400    1.5500    1.5600    1.5700    1.5800    1.5900
    1.6000    1.6100    1.6200    1.6300    1.6400    1.6500    1.6600    1.6700
    1.6800    1.6900    1.7000    1.7100    1.7200    1.7300    1.7400    1.7500
    1.7600    1.7700    1.7800    1.7900    1.8000    1.8100    1.8200    1.8300
    1.8400    1.8500    1.8600    1.8700    1.8800    1.8900    1.9000    1.9100
    1.9200    1.9300    1.9400    1.9500    1.9600    1.9700    1.9800    1.9900
    2.0000    2.0100    2.0200    2.0300    2.0400    2.0500    2.0600    2.0700
    2.0800    2.0900    2.1000    2.1100    2.1200    2.1300    2.1400    2.1500
    2.1600    2.1700    2.1800    2.1900    2.2000    2.2100    2.2200    2.2300
    2.2400    2.2500    2.2600    2.2700    2.2800    2.2900    2.3000    2.3100
    2.3200    2.3300    2.3400    2.3500    2.3600    2.3700    2.3800    2.3900
    2.4000    2.4100    2.4200    2.4300    2.4400    2.4500    2.4600    2.4700
    2.4800    2.4900    2.5000    2.5100    2.5200    2.5300    2.5400    2.5500
    2.5600    2.5700    2.5800    2.5900    2.6000    2.6100    2.6200    2.6300
    2.6400    2.6500    2.6600    2.6700    2.6800    2.6900    2.7000    2.7100
    2.7200    2.7300    2.7400    2.7500    2.7600    2.7700    2.7800    2.7900
    2.8000    2.8100    2.8200    2.8300    2.8400    2.8500    2.8600    2.8700
    2.8800    2.8900    2.9000    2.9100    2.9200    2.9300    2.9400    2.9500
    2.9600    2.9700    2.9800    2.9900    3.0000    3.0100    3.0200    3.0300
    3.0400    3.0500    3.0600    3.0700    3.0800    3.0900    3.1000    3.1100
    3.1200    3.1300    3.1400    3.1500    3.1600    3.1700    3.1800    3.1900
    3.2000    3.2100    3.2200    3.2300    3.2400    3.2500    3.2600    3.2700
    3.2800    3.2900    3.3000    3.3100    3.3200    3.3300    3.3400    3.3500
    3.3600    3.3700    3.3800    3.3900    3.4000    3.4100    3.4200    3.4300
    3.4400    3.4500    3.4600    3.4700    3.4800    3.4900    3.5000    3.5100
    3.5200    3.5300    3.5400    3.5500    3.5600    3.5700    3.5800    3.5900
    3.6000    3.6100    3.6200    3.6300    3.6400    3.6500    3.6600    3.6700
    3.6800    3.6900    3.7000    3.7100    3.7200    3.7300    3.7400    3.7500
    3.7600    3.7700    3.7800    3.7900    3.8000    3.8100    3.8200    3.8300
    3.8400    3.8500    3.8600    3.8700    3.8800    3.8900    3.9000    3.9100
    3.9200    3.9300    3.9400    3.9500    3.9600    3.9700    3.9800    3.9900
    4.0000    4.0100    4.0200    4.0300    4.0400    4.0500    4.0600    4.0700
    4.0800    4.0900    4.1000    4.1100    4.1200    4.1300    4.1400    4.1500
    4.1600    4.1700    4.1800    4.1900    4.2000    4.2100    4.2200    4.2300
    4.2400    4.2500    4.2600    4.2700    4.2800    4.2900    4.3000    4.3100
    4.3200    4.3300    4.3400    4.3500    4.3600    4.3700    4.3800    4.3900
    4.4000    4.4100    4.4200    4.4300    4.4400    4.4500    4.4600    4.4700
    4.4800    4.4900    4.5000    4.5100    4.5200    4.5300    4.5400    4.5500
    4.5600    4.5700    4.5800    4.5900    4.6000    4.6100    4.6200    4.6300
    4.6400    4.6500    4.6600    4.6700    4.6800    4.6900    4.7000    4.7100
    4.7200    4.7300    4.7400    4.7500    4.7600    4.7700    4.7800    4.7900
    4.8000    4.8100    4.8200    4.8300    4.8400    4.8500    4.8600    4.8700
    4.8800    4.8900    4.9000    4.9100    4.9200    4.9300    4.9400    4.9500
    4.9600    4.9700    4.9800    4.9900    5.0000    5.0100    5.0200    5.0300
    5.0400    5.0500    5.0600    5.0700    5.0800    5.0900    5.1000    5.1100
    5.1200    5.1300    5.1400    5.1500    5.1600    5.1700    5.1800    5.1900
    5.2000    5.2100    5.2200    5.2300    5.2400    5.2500    5.2600    5.2700
    5.2800    5.2900    5.3000    5.3100    5.3200    5.3300    5.3400    5.3500
    5.3600    5.3700    5.3800    5.3900    5.4000    5.4100    5.4200    5.4300
    5.4400    5.4500    5.4600    5.4700    5.4800    5.4900    5.5000    5.5100
    5.5200    5.5300    5.5400    5.5500    5.5600    5.5700    5.5800    5.5900
    5.6000    5.6100    5.6200    5.6300    5.6400    5.6500    5.6600    5.6700
    5.6800    5.6900    5.7000    5.7100    5.7200    5.7300    5.7400    5.7500
    5.7600    5.7700    5.7800    5.7900    5.8000    5.8100    5.8200    5.8300
    5.8400    5.8500    5.8600    5.8700    5.8800    5.8900    5.9000    5.9100
    5.9200    5.9300    5.9400    5.9500    5.9600    5.9700    5.9800    5.9900
    6.0000    6.0100
   </PP_R>
   <PP_RAB type="real"  size=" 602" columns="8">
    0.0100    0.0100    0.0100    0.0100    0.0100    0.0100    0.0100    0.0100
    0.0100    0.0100    0.0100    0.0100    0.0100    0.0100    0.0100    0.0100
    0.0100    0.0100    0.0100    0.0100    0.0100    0.0100    0.0100    0.0100
    0.0100    0.0100    0.0100    0.0100    0.0100    0.0100    0.0100    0.0100
    0.0100    0.0100    0.0100    0.0100    0.0100    0.0100    0.0100    0.0100
    0.0100    0.0100    0.0100    0.0100    0.0100    0.0100    0.0100    0.0100
    0.0100    0.0100    0.0100    0.0100    0.0100    0.0100    0.0100    0.0100
    0.0100    0.0100    0.0100    0.0100    0.0100    0.0100    0.0100    0.0100
    0.0100    0.0100    0.0100    0.0100    0.0100    0.0100    0.0100    0.0100
    0.0100    0.0100    0.0100    0.0100    0.0100    0.0100    0.0100    0.0100
    0.0100    0.0100    0.0100    0.0100    0.0100    0.0100    0.0100    0.0100
    0.0100    0.0100    0.0100    0.0100    0.0100    0.0100    0.0100    0.0100
    0.0100    0.0100    0.0100    0.0100    0.0100    0.0100    0.0100    0.0100
    0.0100    0.0100    0.0100    0.0100    0.0100    0.0100    0.0100    0.0100
    0.0100    0.0100    0.0100    0.0100    0.0100    0.0100    0.0100    0.0100
    0.0100    0.0100    0.0100    0.0100    0.0100    0.0100    0.0100    0.0100
    0.0100    0.0100    0.0100    0.0100    0.0100    0.0100    0.0100    0.0100
    0.0100    0.0100    0.0100    0.0100    0.0100    0.0100    0.0100    0.0100
    0.0100    0.0100    0.0100    0.0100    0.0100    0.0100    0.0100    0.0100
    0.0100    0.0100    0.0100    0.0100    0.0100    0.0100    0.0100    0.0100
    0.0100    0.0100    0.0100    0.0100    0.0100    0.0100    0.0100    0.0100
    0.0100    0.0100    0.0100    0.0100    0.0100    0.0100    0.0100    0.0100
    0.0100    0.0100    0.0100    0.0100    0.0100    0.0100    0.0100    0.0100
    0.0100    0.0100    0.0100    0.0100    0.0100    0.0100    0.0100    0.0100
    0.0100    0.0100    0.0100    0.0100    0.0100    0.0100    0.0100    0.0100
    0.0100    0.0100    0.0100    0.0100    0.0100    0.0100    0.0100    0.0100
    0.0100    0.0100    0.0100    0.0100    0.0100    0.0100    0.0100    0.0100
    0.0100    0.0100    0.0100    0.0100    0.0100    0.0100    0.0100    0.0100
    0.0100    0.0100    0.0100    0.0100    0.0100    0.0100    0.0100    0.0100
    0.0100    0.0100    0.0100    0.0100    0.0100    0.0100    0.0100    0.0100
    0.0100    0.0100    0.0100    0.0100    0.0100    0.0100    0.0100    0.0100
    0.0100    0.0100    0.0100    0.0100    0.0100    0.0100    0.0100    0.0100
    0.0100    0.0100    0.0100    0.0100    0.0100    0.0100    0.0100    0.0100
    0.0100    0.0100    0.0100    0.0100    0.0100    0.0100    0.0100    0.0100
    0.0100    0.0100    0.0100    0.0100    0.0100    0.0100    0.0100    0.0100
    0.0100    0.0100    0.0100    0.0100    0.0100    0.0100    0.0100    0.0100
    0.0100    0.0100    0.0100    0.0100    0.0100    0.0100    0.0100    0.0100
    0.0100    0.0100    0.0100    0.0100    0.0100    0.0100    0.0100    0.0100
    0.0100    0.0100    0.0100    0.0100    0.0100    0.0100    0.0100    0.0100
    0.0100    0.0100    0.0100    0.0100    0.0100    0.0100    0.0100    0.0100
    0.0100    0.0100    0.0100    0.0100    0.0100    0.0100    0.0100    0.0100
    0.0100    0.0100    0.0100    0.0100    0.0100    0.0100    0.0100    0.0100
    0.0100    0.0100    0.0100    0.0100    0.0100    0.0100    0.0100    0.0100
    0.0100    0.0100    0.0100    0.0100    0.0100    0.0100    0.0100    0.0100
    0.0100    0.0100    0.0100    0.0100    0.0100    0.0100    0.0100    0.0100
    0.0100    0.0100    0.0100    0.0100    0.0100    0.0100    0.0100    0.0100
    0.0100    0.0100    0.0100    0.0100    0.0100    0.0100    0.0100    0.0100
    0.0100    0.0100    0.0100    0.0100    0.0100    0.0100    0.0100    0.0100
    0.0100    0.0100    0.0100    0.0100    0.0100    0.0100    0.0100    0.0100
    0.0100    0.0100    0.0100    0.0100    0.0100    0.0100    0.0100    0.0100
    0.0100    0.0100    0.0100    0.0100    0.0100    0.0100    0.0100    0.0100
    0.0100    0.0100    0.0100    0.0100    0.0100    0.0100    0.0100    0.0100
    0.0100    0.0100    0.0100    0.0100    0.0100    0.0100    0.0100    0.0100
    0.0100    0.0100    0.0100    0.0100    0.0100    0.0100    0.0100    0.0100
    0.0100    0.0100    0.0100    0.0100    0.0100    0.0100    0.0100    0.0100
    0.0100    0.0100    0.0100    0.0100    0.0100    0.0100    0.0100    0.0100
    0.0100    0.0100    0.0100    0.0100    0.0100    0.0100    0.0100    0.0100
    0.0100    0.0100    0.0100    0.0100    0.0100    0.0100    0.0100    0.0100
    0.0100    0.0100    0.0100    0.0100    0.0100    0.0100    0.0100    0.0100
    0.0100    0.0100    0.0100    0.0100    0.0100    0.0100    0.0100    0.0100
    0.0100    0.0100    0.0100    0.0100    0.0100    0.0100    0.0100    0.0100
    0.0100    0.0100    0.0100    0.0100    0.0100    0.0100    0.0100    0.0100
    0.0100    0.0100    0.0100    0.0100    0.0100    0.0100    0.0100    0.0100
    0.0100    0.0100    0.0100    0.0100    0.0100    0.0100    0.0100    0.0100
    0.0100    0.0100    0.0100    0.0100    0.0100    0.0100    0.0100    0.0100
    0.0100    0.0100    0.0100    0.0100    0.0100    0.0100    0.0100    0.0100
    0.0100    0.0100    0.0100    0.0100    0.0100    0.0100    0.0100    0.0100
    0.0100    0.0100    0.0100    0.0100    0.0100    0.0100    0.0100    0.0100
    0.0100    0.0100    0.0100    0.0100    0.0100    0.0100    0.0100    0.0100
    0.0100    0.0100    0.0100    0.0100    0.0100    0.0100    0.0100    0.0100
    0.0100    0.0100    0.0100    0.0100    0.0100    0.0100    0.0100    0.0100
    0.0100    0.0100    0.0100    0.0100    0.0100    0.0100    0.0100    0.0100
    0.0100    0.0100    0.0100    0.0100    0.0100    0.0100    0.0100    0.0100
    0.0100    0.0100    0.0100    0.0100    0.0100    0.0100    0.0100    0.0100
    0.0100    0.0100    0.0100    0.0100    0.0100    0.0100    0.0100    0.0100
    0.0100    0.0100
   </PP_RAB>
 </PP_MESH>
  <PP_LOCAL type="real"  size=" 602" columns="4">
   -4.5392384562E+01   -4.5390763391E+01   -4.5385952606E+01   -4.5377892970E+01
   -4.5366525244E+01   -4.5351772628E+01   -4.5333546096E+01   -4.5311750246E+01
   -4.5286289139E+01   -4.5257071652E+01   -4.5224015994E+01   -4.5187053150E+01
   -4.5146129191E+01   -4.5101206453E+01   -4.5052263742E+01   -4.4999295713E+01
   -4.4942311646E+01   -4.4881333802E+01   -4.4816395561E+01   -4.4747539478E+01
   -4.4674815374E+01   -4.4598278563E+01   -4.4517988244E+01   -4.4434006108E+01
   -4.4346395154E+01   -4.4255218716E+01   -4.4160539687E+01   -4.4062419913E+01
   -4.3960919749E+01   -4.3856097736E+01   -4.3748010389E+01   -4.3636712080E+01
   -4.3522254980E+01   -4.3404689075E+01   -4.3284062200E+01   -4.3160420138E+01
   -4.3033806710E+01   -4.2904263914E+01   -4.2771832055E+01   -4.2636549891E+01
   -4.2498454789E+01   -4.2357582875E+01   -4.2213969196E+01   -4.2067647872E+01
   -4.1918652257E+01   -4.1767015089E+01   -4.1612768646E+01   -4.1455944899E+01
   -4.1296575654E+01   -4.1134692705E+01   -4.0970327971E+01   -4.0803513638E+01
   -4.0634282288E+01   -4.0462667043E+01   -4.0288701677E+01   -4.0112420742E+01
   -3.9933859690E+01   -3.9753054964E+01   -3.9570044129E+01   -3.9384865935E+01
   -3.9197560424E+01   -3.9008169017E+01   -3.8816734530E+01   -3.8623301330E+01
   -3.8427915299E+01   -3.8230623884E+01   -3.8031476203E+01   -3.7830522983E+01
   -3.7627816585E+01   -3.7423411027E+01   -3.7217361987E+01   -3.7009726740E+01
   -3.6800564150E+01   -3.6589934622E+01   -3.6377900065E+01   -3.6164523859E+01
   -3.5949870756E+01   -3.5734006823E+01   -3.5516999376E+01   -3.5298916894E+01
   -3.5079828939E+01   -3.4859806071E+01   -3.4638919755E+01   -3.4417242273E+01
   -3.4194846627E+01   -3.3971806448E+01   -3.3748195900E+01   -3.3524089586E+01
   -3.3299562452E+01   -3.3074689698E+01   -3.2849546683E+01   -3.2624208834E+01
   -3.2398751560E+01   -3.2173250163E+01   -3.1947779756E+01   -3.1722415174E+01
   -3.1497230902E+01   -3.1272301010E+01   -3.1047699030E+01   -3.0823497916E+01
   -3.0599769967E+01   -3.0376586753E+01   -3.0154019049E+01   -2.9932136800E+01
   -2.9711009008E+01   -2.9490703624E+01   -2.9271287572E+01   -2.9052826661E+01
   -2.8835385592E+01   -2.8619027779E+01   -2.8403815239E+01   -2.8189808698E+01
   -2.7977067527E+01   -2.7765649710E+01   -2.7555611402E+01   -2.7347007320E+01
   -2.7139890697E+01   -2.6934313008E+01   -2.6730323710E+01   -2.6527970636E+01
   -2.6327300183E+01   -2.6128356092E+01   -2.5931180409E+01   -2.5735813598E+01
   -2.5542293563E+01   -2.5350655971E+01   -2.5160934953E+01   -2.4973161991E+01
   -2.4787365971E+01   -2.4603574347E+01   -2.4421811537E+01   -2.4242099296E+01
   -2.4064458135E+01   -2.3888904690E+01   -2.3715453411E+01   -2.3544117426E+01
   -2.3374905049E+01   -2.3207823624E+01   -2.3042877473E+01   -2.2880067087E+01
   -2.2719392478E+01   -2.2560848247E+01   -2.2404427861E+01   -2.2250121894E+01
   -2.2097916489E+01   -2.1947798022E+01   -2.1799746111E+01   -2.1653740647E+01
   -2.1509756861E+01   -2.1367767300E+01   -2.1227742844E+01   -2.1089648681E+01
   -2.0953451105E+01   -2.0819108638E+01   -2.0686581449E+01   -2.0555826919E+01
   -2.0426803615E+01   -2.0299471400E+01   -2.0173790954E+01   -2.0049723913E+01
   -1.9927233313E+01   -1.9806282519E+01   -1.9686836904E+01   -1.9568861627E+01
   -1.9452324350E+01   -1.9337192084E+01   -1.9223434702E+01   -1.9111021112E+01
   -1.8999923291E+01   -1.8890112074E+01   -1.8781561393E+01   -1.8674244020E+01
   -1.8568135670E+01   -1.8463211031E+01   -1.8359447405E+01   -1.8256821350E+01
   -1.8155311550E+01   -1.8054896352E+01   -1.7955555624E+01   -1.7857269388E+01
   -1.7760018516E+01   -1.7663784566E+01   -1.7568549260E+01   -1.7474295536E+01
   -1.7381005844E+01   -1.7288664342E+01   -1.7197254119E+01   -1.7106760276E+01
   -1.7017166865E+01   -1.6928459417E+01   -1.6840623067E+01   -1.6753643656E+01
   -1.6667507396E+01   -1.6582200380E+01   -1.6497709918E+01   -1.6414022323E+01
   -1.6331125802E+01   -1.6249007571E+01   -1.6167656040E+01   -1.6087059712E+01
   -1.6007207059E+01   -1.5928087978E+01   -1.5849691147E+01   -1.5772007396E+01
   -1.5695026650E+01   -1.5618739674E+01   -1.5543138083E+01   -1.5468212479E+01
   -1.5393955747E+01   -1.5320359549E+01   -1.5247416670E+01   -1.5175120391E+01
   -1.5103463228E+01   -1.5032439534E+01   -1.4962042712E+01   -1.4892266892E+01
   -1.4823106676E+01   -1.4754556002E+01   -1.4686610003E+01   -1.4619263319E+01
   -1.4552510744E+01   -1.4486347408E+01   -1.4420768238E+01   -1.4355768297E+01
   -1.4291342658E+01   -1.4227486415E+01   -1.4164194450E+01   -1.4101461824E+01
   -1.4039283435E+01   -1.3977653927E+01   -1.3916568281E+01   -1.3856020955E+01
   -1.3796006376E+01   -1.3736519351E+01   -1.3677553845E+01   -1.3619104148E+01
   -1.3561164634E+01   -1.3503729060E+01   -1.3446791508E+01   -1.3390345966E+01
   -1.3334386099E+01   -1.3278905782E+01   -1.3223898779E+01   -1.3169358756E+01
   -1.3115279418E+01   -1.3061654510E+01   -1.3008477790E+01   -1.2955742864E+01
   -1.2903443659E+01   -1.2851574124E+01   -1.2800127869E+01   -1.2749099168E+01
   -1.2698482271E+01   -1.2648270940E+01   -1.2598459875E+01   -1.2549043731E+01
   -1.2500016561E+01   -1.2451373503E+01   -1.2403109695E+01   -1.2355219624E+01
   -1.2307698799E+01   -1.2260542888E+01   -1.2213746868E+01   -1.2167306563E+01
   -1.2121218246E+01   -1.2075477653E+01   -1.2030080780E+01   -1.1985024075E+01
   -1.1940303682E+01   -1.1895915740E+01   -1.1851856739E+01   -1.1808122995E+01
   -1.1764710582E+01   -1.1721616307E+01   -1.1678836693E+01   -1.1636368045E+01
   -1.1594207172E+01   -1.1552350815E+01   -1.1510795517E+01   -1.1469538043E+01
   -1.1428575367E+01   -1.1387904277E+01   -1.1347521474E+01   -1.1307424154E+01
   -1.1267609303E+01   -1.1228073701E+01   -1.1188814599E+01   -1.1149829175E+01
   -1.1111114451E+01   -1.1072667555E+01   -1.1034485899E+01   -1.0996566744E+01
   -1.0958907124E+01   -1.0921504629E+01   -1.0884356661E+01   -1.0847460496E+01
   -1.0810813552E+01   -1.0774413473E+01   -1.0738257768E+01   -1.0702343735E+01
   -1.0666669180E+01   -1.0631231747E+01   -1.0596028981E+01   -1.0561058473E+01
   -1.0526318111E+01   -1.0491805630E+01   -1.0457518604E+01   -1.0423454941E+01
   -1.0389612548E+01   -1.0355989252E+01   -1.0322582713E+01   -1.0289391073E+01
   -1.0256412273E+01   -1.0223644179E+01   -1.0191084702E+01   -1.0158732020E+01
   -1.0126584171E+01   -1.0094639065E+01   -1.0062894835E+01   -1.0031349697E+01
   -1.0000001779E+01   -9.9688490487E+00   -9.9378898245E+00   -9.9071223648E+00
   -9.8765448860E+00   -9.8461554175E+00   -9.8159524335E+00   -9.7859342416E+00
   -9.7560991267E+00   -9.7264452312E+00   -9.6969711103E+00   -9.6676751428E+00
   -9.6385556804E+00   -9.6096109766E+00   -9.5808396473E+00   -9.5522401469E+00
   -9.5238108999E+00   -9.4955502455E+00   -9.4674568650E+00   -9.4395292849E+00
   -9.4117660079E+00   -9.3841654351E+00   -9.3567263179E+00   -9.3294472512E+00
   -9.3023268217E+00   -9.2753634697E+00   -9.2485560208E+00   -9.2219031356E+00
   -9.1954034745E+00   -9.1690555408E+00   -9.1428581940E+00   -9.1168101717E+00
   -9.0909101966E+00   -9.0651568655E+00   -9.0395490256E+00   -9.0140855045E+00
   -8.9887650844E+00   -8.9635864608E+00   -8.9385484497E+00   -8.9136499718E+00
   -8.8888898664E+00   -8.8642669330E+00   -8.8397799392E+00   -8.8154279013E+00
   -8.7912097124E+00   -8.7671242658E+00   -8.7431703128E+00   -8.7193469196E+00
   -8.6956530459E+00   -8.6720876365E+00   -8.6486495533E+00   -8.6253377749E+00
   -8.6021513694E+00   -8.5790893307E+00   -8.5561506385E+00   -8.5333341699E+00
   -8.5106391004E+00   -8.4880644711E+00   -8.4656093226E+00   -8.4432726054E+00
   -8.4210534179E+00   -8.3989509048E+00   -8.3769641516E+00   -8.3550922342E+00
   -8.3333341175E+00   -8.3116890620E+00   -8.2901561959E+00   -8.2687346472E+00
   -8.2474234767E+00   -8.2262218228E+00   -8.2051289298E+00   -8.1841439664E+00
   -8.1632661015E+00   -8.1424943912E+00   -8.1218281226E+00   -8.1012665285E+00
   -8.0808088163E+00   -8.0604541779E+00   -8.0402017224E+00   -8.0200508117E+00
   -8.0000006904E+00   -7.9800506029E+00   -7.9601997464E+00   -7.9404473387E+00
   -7.9207927448E+00   -7.9012352446E+00   -7.8817741175E+00   -7.8624085741E+00
   -7.8431379194E+00   -7.8239615275E+00   -7.8048787116E+00   -7.7858887850E+00
   -7.7669909782E+00   -7.7481846631E+00   -7.7294692291E+00   -7.7108440214E+00
   -7.6923083852E+00   -7.6738615774E+00   -7.6555030176E+00   -7.6372321167E+00
   -7.6190482503E+00   -7.6009507943E+00   -7.5829390375E+00   -7.5650124289E+00
   -7.5471704074E+00   -7.5294123775E+00   -7.5117377442E+00   -7.4941458336E+00
   -7.4766361076E+00   -7.4592080381E+00   -7.4418610577E+00   -7.4245945989E+00
   -7.4074080306E+00   -7.3903008111E+00   -7.3732724513E+00   -7.3563224101E+00
   -7.3394501465E+00   -7.3226550771E+00   -7.3059366419E+00   -7.2892943954E+00
   -7.2727278216E+00   -7.2562364048E+00   -7.2398196143E+00   -7.2234768582E+00
   -7.2072077384E+00   -7.1910117631E+00   -7.1748884405E+00   -7.1588372787E+00
   -7.1428576977E+00   -7.1269492944E+00   -7.1111116181E+00   -7.0953441999E+00
   -7.0796465710E+00   -7.0640182134E+00   -7.0484586610E+00   -7.0329675228E+00
   -7.0175443517E+00   -7.0021887008E+00   -6.9869001194E+00   -6.9716780677E+00
   -6.9565222162E+00   -6.9414321387E+00   -6.9264074090E+00   -6.9114476008E+00
   -6.8965522339E+00   -6.8817209003E+00   -6.8669532398E+00   -6.8522488461E+00
   -6.8376073129E+00   -6.8230282337E+00   -6.8085111085E+00   -6.7940556406E+00
   -6.7796614448E+00   -6.7653281338E+00   -6.7510553201E+00   -6.7368425826E+00
   -6.7226895118E+00   -6.7085957999E+00   -6.6945610778E+00   -6.6805849761E+00
   -6.6666671253E+00   -6.6528070952E+00   -6.6390045559E+00   -6.6252591875E+00
   -6.6115706380E+00   -6.5979385551E+00   -6.5843625869E+00   -6.5708423009E+00
   -6.5573774293E+00   -6.5439676465E+00   -6.5306126167E+00   -6.5173120041E+00
   -6.5040654680E+00   -6.4908725958E+00   -6.4777331499E+00   -6.4646468100E+00
   -6.4516132562E+00   -6.4386321684E+00   -6.4257032129E+00   -6.4128260125E+00
   -6.4000003346E+00   -6.3872258740E+00   -6.3745023255E+00   -6.3618293840E+00
   -6.3492067289E+00   -6.3366340038E+00   -6.3241109865E+00   -6.3116373861E+00
   -6.2992129116E+00   -6.2868372721E+00   -6.2745101654E+00   -6.2622312423E+00
   -6.2500002964E+00   -6.2378170502E+00   -6.2256812263E+00   -6.2135925473E+00
   -6.2015507345E+00   -6.1895554335E+00   -6.1776064580E+00   -6.1657035435E+00
   -6.1538464256E+00   -6.1420348397E+00   -6.1302685213E+00   -6.1185471415E+00
   -6.1068704961E+00   -6.0952383469E+00   -6.0836504419E+00   -6.0721065289E+00
   -6.0606063556E+00   -6.0491496270E+00   -6.0377361059E+00   -6.0263655862E+00
   -6.0150378274E+00   -6.0037525891E+00   -5.9925096310E+00   -5.9813086962E+00
   -5.9701495043E+00   -5.9590318846E+00   -5.9479556080E+00   -5.9369204452E+00
   -5.9259261670E+00   -5.9149725443E+00   -5.9040592893E+00   -5.8931862247E+00
   -5.8823531469E+00   -5.8715598372E+00   -5.8608060772E+00   -5.8500916484E+00
   -5.8394163102E+00   -5.8287798192E+00   -5.8181820168E+00   -5.8076226946E+00
   -5.7971016443E+00   -5.7866186576E+00   -5.7761735261E+00   -5.7657659903E+00
   -5.7553958809E+00   -5.7450630183E+00   -5.7347672037E+00   -5.7245082386E+00
   -5.7142859244E+00   -5.7041000567E+00   -5.6939503809E+00   -5.6838367698E+00
   -5.6737590340E+00   -5.6637169841E+00   -5.6537104307E+00   -5.6437391844E+00
   -5.6338030324E+00   -5.6239017682E+00   -5.6140352546E+00   -5.6042033112E+00
   -5.5944057573E+00   -5.5846424124E+00   -5.5749130959E+00   -5.5652175921E+00
   -5.5555557296E+00   -5.5459273666E+00   -5.5363323309E+00   -5.5267704504E+00
   -5.5172415530E+00   -5.5077454664E+00   -5.4982819774E+00   -5.4888509372E+00
   -5.4794522044E+00   -5.4700856149E+00   -5.4607510045E+00   -5.4514482092E+00
   -5.4421770649E+00   -5.4329373657E+00   -5.4237289733E+00   -5.4145517520E+00
   -5.4054055453E+00   -5.3962901967E+00   -5.3872055498E+00   -5.3781514481E+00
   -5.3691276980E+00   -5.3601341605E+00   -5.3511707102E+00   -5.3422371980E+00
   -5.3333334747E+00   -5.3244593911E+00
  </PP_LOCAL>
 <PP_NONLOCAL>
   <PP_BETA.1
       type="real"
       size=" 602"
       columns="4"
       index="1"
       angular_momentum="0"
       cutoff_radius_index=" 266"
       cutoff_radius="    2.6500000000E+00" >
    0.0000000000E+00    6.4716572878E-03    1.2914070012E-02    1.9298019713E-02
    2.5594340256E-02    3.1773944285E-02    3.7807850012E-02    4.3667208466E-02
    4.9323331311E-02    5.4747719310E-02    5.9912091575E-02    6.4788415658E-02
    6.9348938596E-02    7.3566218970E-02    7.7413160073E-02    8.0863044223E-02
    8.3889568306E-02    8.6466880560E-02    8.8569618665E-02    9.0172949163E-02
    9.1252608167E-02    9.1784943460E-02    9.1746957852E-02    9.1116353891E-02
    8.9871579773E-02    8.7991876516E-02    8.5457326247E-02    8.2248901615E-02
    7.8348516030E-02    7.3739074947E-02    6.8404527849E-02    6.2329920859E-02
    5.5501449726E-02    4.7906513011E-02    3.9533766660E-02    3.0373175418E-02
    2.0416068942E-02    9.6551920541E-03   -1.9152420660E-03   -1.4299499763E-02
   -2.7500278015E-02   -4.1518655150E-02   -5.6354043641E-02   -7.2004144800E-02
   -8.8464905635E-02   -1.0573047811E-01   -1.2379318113E-01   -1.4264346549E-01
   -1.6226988287E-01   -1.8265905689E-01   -2.0379565666E-01   -2.2566237958E-01
   -2.4823993728E-01   -2.7150703492E-01   -2.9544037587E-01   -3.2001465341E-01
   -3.4520255598E-01   -3.7097477907E-01   -3.9730003655E-01   -4.2414508551E-01
   -4.5147475197E-01   -4.7925196408E-01   -5.0743779401E-01   -5.3599150335E-01
   -5.6487059746E-01   -5.9403088170E-01   -6.2342653708E-01   -6.5301018657E-01