<UPF version="2.0.1">
  <PP_INFO>

 S_ONCV_PBE_FR-1.1.upf

 This pseudopotential file has been produced using the code
 ONCVPSP  (Optimized Norm-Conservinng Vanderbilt PSeudopotential)
 fully-relativistic version 2.1.1, 03/26/2014 by D. R. Hamann
 The code is available through a link at URL www.mat-simresearch.com.
 Documentation with the package provides a full description of the
 input data below.

 While it is not required under the terms of the GNU GPL, it is
 suggested that you cite D. R. Hamann, Phys. Rev. B 88, 085117 (2013)
 in any publication using these pseudopotentials.

 -----

 This pseudopotential was produced with the SG15 1.0 and/or 1.1
 parameter sets, the Schlipf-Gygi norm-conserving pseudopotential
 library. For details of the construction and testing of the
 pseudopotential please refer to:

 M. Schlipf, F. Gygi, Comp. Phys. Comm. 196, 36 (2015)
 http://dx.doi.org/10.1016/j.cpc.2015.05.011

 The above authors kindly ask that you include this reference in all
 publications associated to this pseudopotential.

 Please note this fully-relativistic version does not employ the
 above self-consistent procedure at the fully-relativistic level.

 -----

 This pseudopotential was produced by Peter Scherpelz for the purpose
 of performing GW calculations with spin-orbit-coupling. Please see
 the publication:

 P. Scherpelz, M. Govoni, I. Hamada, G. Galli; J. Chem. Theory Comput. (2016)
 http://dx.doi.org/10.1021/acs.jctc.6b00114

 If you use these pseudopotentials in your work, we also kindly ask
 that you cite the above publication.

 -----

 This work is licensed under the Creative Commons Attribution-ShareAlike 
 4.0 International License. To view a copy of this license, visit 
 http://creativecommons.org/licenses/by-sa/4.0/ or send a letter to 
 Creative Commons, PO Box 1866, Mountain View, CA 94042, USA.

 The SG15 library is Copyright 2015 The Regents of the University of
 California.  Further modifications of these files are Copyright 2016
 Peter Scherpelz.

    <PP_INPUTFILE>
# ATOM AND REFERENCE CONFIGURATION
# atsym  z    nc    nv    iexc   psfile
  S 16.00     3     2     4      upf
#
#   n    l    f        energy (Ha)
    1    0    2.00
    2    0    2.00
    2    1    6.00
    3    0    2.00
    3    1    4.00
#
# PSEUDOPOTENTIAL AND OPTIMIZATION
# lmax
    1
#
#   l,   rc,     ep,   ncon, nbas, qcut
    0    2.13   -0.63    5    8    6.76
    1    1.52   -0.26    5    8    8.64
#
# LOCAL POTENTIAL
# lloc, lpopt,  rc(5),   dvloc0
    4    5      0.96       0.00
#
# VANDERBILT-KLEINMAN-BYLANDER PROJECTORs
# l, nproj, debl
    0    2    1.2253
    1    2    1.6550
#
# MODEL CORE CHARGE
# icmod, fcfact
    0    0.00
#
# LOG DERIVATIVE ANALYSIS
# epsh1, epsh2, depsh
   -5.00    3.00    0.02
#
# OUTPUT GRID
# rlmax, drl
    6.00    0.01
#
# TEST CONFIGURATIONS
# ncnf
    0
# nvcnf
#   n    l    f
    </PP_INPUTFILE>
  </PP_INFO>
  <!--                               -->
  <!-- END OF HUMAN READABLE SECTION -->
  <!--                               -->
    <PP_HEADER
       generated="Generated using ONCVPSP code by D. R. Hamann"
       author="anonymous"
       date="150703"
       comment=""
       element="S "
       pseudo_type="NC"
       relativistic="full"
       is_ultrasoft="F"
       is_paw="F"
       is_coulomb="F"
       has_so="T"
       has_wfc="F"
       has_gipaw="F"
       core_correction="F"
       functional="PBE"
       z_valence="    6.00"
       total_psenergy="  -1.00745884623E+01"
       rho_cutoff="   6.01000000000E+00"
       l_max="1"
       l_local="-1"
       mesh_size="   602"
       number_of_wfc="0"
       number_of_proj="6"/>
 <PP_MESH>
   <PP_R type="real"  size=" 602" columns="8">
    0.0000    0.0100    0.0200    0.0300    0.0400    0.0500    0.0600    0.0700
    0.0800    0.0900    0.1000    0.1100    0.1200    0.1300    0.1400    0.1500
    0.1600    0.1700    0.1800    0.1900    0.2000    0.2100    0.2200    0.2300
    0.2400    0.2500    0.2600    0.2700    0.2800    0.2900    0.3000    0.3100
    0.3200    0.3300    0.3400    0.3500    0.3600    0.3700    0.3800    0.3900
    0.4000    0.4100    0.4200    0.4300    0.4400    0.4500    0.4600    0.4700
    0.4800    0.4900    0.5000    0.5100    0.5200    0.5300    0.5400    0.5500
    0.5600    0.5700    0.5800    0.5900    0.6000    0.6100    0.6200    0.6300
    0.6400    0.6500    0.6600    0.6700    0.6800    0.6900    0.7000    0.7100
    0.7200    0.7300    0.7400    0.7500    0.7600    0.7700    0.7800    0.7900
    0.8000    0.8100    0.8200    0.8300    0.8400    0.8500    0.8600    0.8700
    0.8800    0.8900    0.9000    0.9100    0.9200    0.9300    0.9400    0.9500
    0.9600    0.9700    0.9800    0.9900    1.0000    1.0100    1.0200    1.0300
    1.0400    1.0500    1.0600    1.0700    1.0800    1.0900    1.1000    1.1100
    1.1200    1.1300    1.1400    1.1500    1.1600    1.1700    1.1800    1.1900
    1.2000    1.2100    1.2200    1.2300    1.2400    1.2500    1.2600    1.2700
    1.2800    1.2900    1.3000    1.3100    1.3200    1.3300    1.3400    1.3500
    1.3600    1.3700    1.3800    1.3900    1.4000    1.4100    1.4200    1.4300
    1.4400    1.4500    1.4600    1.4700    1.4800    1.4900    1.5000    1.5100
    1.5200    1.5300    1.5400    1.5500    1.5600    1.5700    1.5800    1.5900
    1.6000    1.6100    1.6200    1.6300    1.6400    1.6500    1.6600    1.6700
    1.6800    1.6900    1.7000    1.7100    1.7200    1.7300    1.7400    1.7500
    1.7600    1.7700    1.7800    1.7900    1.8000    1.8100    1.8200    1.8300
    1.8400    1.8500    1.8600    1.8700    1.8800    1.8900    1.9000    1.9100
    1.9200    1.9300    1.9400    1.9500    1.9600    1.9700    1.9800    1.9900
    2.0000    2.0100    2.0200    2.0300    2.0400    2.0500    2.0600    2.0700
    2.0800    2.0900    2.1000    2.1100    2.1200    2.1300    2.1400    2.1500
    2.1600    2.1700    2.1800    2.1900    2.2000    2.2100    2.2200    2.2300
    2.2400    2.2500    2.2600    2.2700    2.2800    2.2900    2.3000    2.3100
    2.3200    2.3300    2.3400    2.3500    2.3600    2.3700    2.3800    2.3900
    2.4000    2.4100    2.4200    2.4300    2.4400    2.4500    2.4600    2.4700
    2.4800    2.4900    2.5000    2.5100    2.5200    2.5300    2.5400    2.5500
    2.5600    2.5700    2.5800    2.5900    2.6000    2.6100    2.6200    2.6300
    2.6400    2.6500    2.6600    2.6700    2.6800    2.6900    2.7000    2.7100
    2.7200    2.7300    2.7400    2.7500    2.7600    2.7700    2.7800    2.7900
    2.8000    2.8100    2.8200    2.8300    2.8400    2.8500    2.8600    2.8700
    2.8800    2.8900    2.9000    2.9100    2.9200    2.9300    2.9400    2.9500
    2.9600    2.9700    2.9800    2.9900    3.0000    3.0100    3.0200    3.0300
    3.0400    3.0500    3.0600    3.0700    3.0800    3.0900    3.1000    3.1100
    3.1200    3.1300    3.1400    3.1500    3.1600    3.1700    3.1800    3.1900
    3.2000    3.2100    3.2200    3.2300    3.2400    3.2500    3.2600    3.2700
    3.2800    3.2900    3.3000    3.3100    3.3200    3.3300    3.3400    3.3500
    3.3600    3.3700    3.3800    3.3900    3.4000    3.4100    3.4200    3.4300
    3.4400    3.4500    3.4600    3.4700    3.4800    3.4900    3.5000    3.5100
    3.5200    3.5300    3.5400    3.5500    3.5600    3.5700    3.5800    3.5900
    3.6000    3.6100    3.6200    3.6300    3.6400    3.6500    3.6600    3.6700
    3.6800    3.6900    3.7000    3.7100    3.7200    3.7300    3.7400    3.7500
    3.7600    3.7700    3.7800    3.7900    3.8000    3.8100    3.8200    3.8300
    3.8400    3.8500    3.8600    3.8700    3.8800    3.8900    3.9000    3.9100
    3.9200    3.9300    3.9400    3.9500    3.9600    3.9700    3.9800    3.9900
    4.0000    4.0100    4.0200    4.0300    4.0400    4.0500    4.0600    4.0700
    4.0800    4.0900    4.1000    4.1100    4.1200    4.1300    4.1400    4.1500
    4.1600    4.1700    4.1800    4.1900    4.2000    4.2100    4.2200    4.2300
    4.2400    4.2500    4.2600    4.2700    4.2800    4.2900    4.3000    4.3100
    4.3200    4.3300    4.3400    4.3500    4.3600    4.3700    4.3800    4.3900
    4.4000    4.4100    4.4200    4.4300    4.4400    4.4500    4.4600    4.4700
    4.4800    4.4900    4.5000    4.5100    4.5200    4.5300    4.5400    4.5500
    4.5600    4.5700    4.5800    4.5900    4.6000    4.6100    4.6200    4.6300
    4.6400    4.6500    4.6600    4.6700    4.6800    4.6900    4.7000    4.7100
    4.7200    4.7300    4.7400    4.7500    4.7600    4.7700    4.7800    4.7900
    4.8000    4.8100    4.8200    4.8300    4.8400    4.8500    4.8600    4.8700
    4.8800    4.8900    4.9000    4.9100    4.9200    4.9300    4.9400    4.9500
    4.9600    4.9700    4.9800    4.9900    5.0000    5.0100    5.0200    5.0300
    5.0400    5.0500    5.0600    5.0700    5.0800    5.0900    5.1000    5.1100
    5.1200    5.1300    5.1400    5.1500    5.1600    5.1700    5.1800    5.1900
    5.2000    5.2100    5.2200    5.2300    5.2400    5.2500    5.2600    5.2700
    5.2800    5.2900    5.3000    5.3100    5.3200    5.3300    5.3400    5.3500
    5.3600    5.3700    5.3800    5.3900    5.4000    5.4100    5.4200    5.4300
    5.4400    5.4500    5.4600    5.4700    5.4800    5.4900    5.5000    5.5100
    5.5200    5.5300    5.5400    5.5500    5.5600    5.5700    5.5800    5.5900
    5.6000    5.6100    5.6200    5.6300    5.6400    5.6500    5.6600    5.6700
    5.6800    5.6900    5.7000    5.7100    5.7200    5.7300    5.7400    5.7500
    5.7600    5.7700    5.7800    5.7900    5.8000    5.8100    5.8200    5.8300
    5.8400    5.8500    5.8600    5.8700    5.8800    5.8900    5.9000    5.9100
    5.9200    5.9300    5.9400    5.9500    5.9600    5.9700    5.9800    5.9900
    6.0000    6.0100
   </PP_R>
   <PP_RAB type="real"  size=" 602" columns="8">
    0.0100    0.0100    0.0100    0.0100    0.0100    0.0100    0.0100    0.0100
    0.0100    0.0100    0.0100    0.0100    0.0100    0.0100    0.0100    0.0100
    0.0100    0.0100    0.0100    0.0100    0.0100    0.0100    0.0100    0.0100
    0.0100    0.0100    0.0100    0.0100    0.0100    0.0100    0.0100    0.0100
    0.0100    0.0100    0.0100    0.0100    0.0100    0.0100    0.0100    0.0100
    0.0100    0.0100    0.0100    0.0100    0.0100    0.0100    0.0100    0.0100
    0.0100    0.0100    0.0100    0.0100    0.0100    0.0100    0.0100    0.0100
    0.0100    0.0100    0.0100    0.0100    0.0100    0.0100    0.0100    0.0100
    0.0100    0.0100    0.0100    0.0100    0.0100    0.0100    0.0100    0.0100
    0.0100    0.0100    0.0100    0.0100    0.0100    0.0100    0.0100    0.0100
    0.0100    0.0100    0.0100    0.0100    0.0100    0.0100    0.0100    0.0100
    0.0100    0.0100    0.0100    0.0100    0.0100    0.0100    0.0100    0.0100
    0.0100    0.0100    0.0100    0.0100    0.0100    0.0100    0.0100    0.0100
    0.0100    0.0100    0.0100    0.0100    0.0100    0.0100    0.0100    0.0100
    0.0100    0.0100    0.0100    0.0100    0.0100    0.0100    0.0100    0.0100
    0.0100    0.0100    0.0100    0.0100    0.0100    0.0100    0.0100    0.0100
    0.0100    0.0100    0.0100    0.0100    0.0100    0.0100    0.0100    0.0100
    0.0100    0.0100    0.0100    0.0100    0.0100    0.0100    0.0100    0.0100
    0.0100    0.0100    0.0100    0.0100    0.0100    0.0100    0.0100    0.0100
    0.0100    0.0100    0.0100    0.0100    0.0100    0.0100    0.0100    0.0100
    0.0100    0.0100    0.0100    0.0100    0.0100    0.0100    0.0100    0.0100
    0.0100    0.0100    0.0100    0.0100    0.0100    0.0100    0.0100    0.0100
    0.0100    0.0100    0.0100    0.0100    0.0100    0.0100    0.0100    0.0100
    0.0100    0.0100    0.0100    0.0100    0.0100    0.0100    0.0100    0.0100
    0.0100    0.0100    0.0100    0.0100    0.0100    0.0100    0.0100    0.0100
    0.0100    0.0100    0.0100    0.0100    0.0100    0.0100    0.0100    0.0100
    0.0100    0.0100    0.0100    0.0100    0.0100    0.0100    0.0100    0.0100
    0.0100    0.0100    0.0100    0.0100    0.0100    0.0100    0.0100    0.0100
    0.0100    0.0100    0.0100    0.0100    0.0100    0.0100    0.0100    0.0100
    0.0100    0.0100    0.0100    0.0100    0.0100    0.0100    0.0100    0.0100
    0.0100    0.0100    0.0100    0.0100    0.0100    0.0100    0.0100    0.0100
    0.0100    0.0100    0.0100    0.0100    0.0100    0.0100    0.0100    0.0100
    0.0100    0.0100    0.0100    0.0100    0.0100    0.0100    0.0100    0.0100
    0.0100    0.0100    0.0100    0.0100    0.0100    0.0100    0.0100    0.0100
    0.0100    0.0100    0.0100    0.0100    0.0100    0.0100    0.0100    0.0100
    0.0100    0.0100    0.0100    0.0100    0.0100    0.0100    0.0100    0.0100
    0.0100    0.0100    0.0100    0.0100    0.0100    0.0100    0.0100    0.0100
    0.0100    0.0100    0.0100    0.0100    0.0100    0.0100    0.0100    0.0100
    0.0100    0.0100    0.0100    0.0100    0.0100    0.0100    0.0100    0.0100
    0.0100    0.0100    0.0100    0.0100    0.0100    0.0100    0.0100    0.0100
    0.0100    0.0100    0.0100    0.0100    0.0100    0.0100    0.0100    0.0100
    0.0100    0.0100    0.0100    0.0100    0.0100    0.0100    0.0100    0.0100
    0.0100    0.0100    0.0100    0.0100    0.0100    0.0100    0.0100    0.0100
    0.0100    0.0100    0.0100    0.0100    0.0100    0.0100    0.0100    0.0100
    0.0100    0.0100    0.0100    0.0100    0.0100    0.0100    0.0100    0.0100
    0.0100    0.0100    0.0100    0.0100    0.0100    0.0100    0.0100    0.0100
    0.0100    0.0100    0.0100    0.0100    0.0100    0.0100    0.0100    0.0100
    0.0100    0.0100    0.0100    0.0100    0.0100    0.0100    0.0100    0.0100
    0.0100    0.0100    0.0100    0.0100    0.0100    0.0100    0.0100    0.0100
    0.0100    0.0100    0.0100    0.0100    0.0100    0.0100    0.0100    0.0100
    0.0100    0.0100    0.0100    0.0100    0.0100    0.0100    0.0100    0.0100
    0.0100    0.0100    0.0100    0.0100    0.0100    0.0100    0.0100    0.0100
    0.0100    0.0100    0.0100    0.0100    0.0100    0.0100    0.0100    0.0100
    0.0100    0.0100    0.0100    0.0100    0.0100    0.0100    0.0100    0.0100
    0.0100    0.0100    0.0100    0.0100    0.0100    0.0100    0.0100    0.0100
    0.0100    0.0100    0.0100    0.0100    0.0100    0.0100    0.0100    0.0100
    0.0100    0.0100    0.0100    0.0100    0.0100    0.0100    0.0100    0.0100
    0.0100    0.0100    0.0100    0.0100    0.0100    0.0100    0.0100    0.0100
    0.0100    0.0100    0.0100    0.0100    0.0100    0.0100    0.0100    0.0100
    0.0100    0.0100    0.0100    0.0100    0.0100    0.0100    0.0100    0.0100
    0.0100    0.0100    0.0100    0.0100    0.0100    0.0100    0.0100    0.0100
    0.0100    0.0100    0.0100    0.0100    0.0100    0.0100    0.0100    0.0100
    0.0100    0.0100    0.0100    0.0100    0.0100    0.0100    0.0100    0.0100
    0.0100    0.0100    0.0100    0.0100    0.0100    0.0100    0.0100    0.0100
    0.0100    0.0100    0.0100    0.0100    0.0100    0.0100    0.0100    0.0100
    0.0100    0.0100    0.0100    0.0100    0.0100    0.0100    0.0100    0.0100
    0.0100    0.0100    0.0100    0.0100    0.0100    0.0100    0.0100    0.0100
    0.0100    0.0100    0.0100    0.0100    0.0100    0.0100    0.0100    0.0100
    0.0100    0.0100    0.0100    0.0100    0.0100    0.0100    0.0100    0.0100
    0.0100    0.0100    0.0100    0.0100    0.0100    0.0100    0.0100    0.0100
    0.0100    0.0100    0.0100    0.0100    0.0100    0.0100    0.0100    0.0100
    0.0100    0.0100    0.0100    0.0100    0.0100    0.0100    0.0100    0.0100
    0.0100    0.0100    0.0100    0.0100    0.0100    0.0100    0.0100    0.0100
    0.0100    0.0100    0.0100    0.0100    0.0100    0.0100    0.0100    0.0100
    0.0100    0.0100    0.0100    0.0100    0.0100    0.0100    0.0100    0.0100
    0.0100    0.0100
   </PP_RAB>
 </PP_MESH>
  <PP_LOCAL type="real"  size=" 602" columns="4">
   -5.7724055199E+01   -4.5025608204E+01   -4.0734446948E+01   -4.0660731864E+01
   -4.0614623386E+01   -4.0546338905E+01   -4.0462636851E+01   -4.0365963459E+01
   -4.0257181912E+01   -4.0136758708E+01   -4.0005074208E+01   -3.9862494181E+01
   -3.9709380280E+01   -3.9546085889E+01   -3.9372949227E+01   -3.9190286481E+01
   -3.8998385550E+01   -3.8797500482E+01   -3.8587846721E+01   -3.8369597355E+01
   -3.8142880582E+01   -3.7907778663E+01   -3.7664328517E+01   -3.7412524116E+01
   -3.7152320715E+01   -3.6883640858E+01   -3.6606381915E+01   -3.6320425009E+01
   -3.6025644847E+01   -3.5721920133E+01   -3.5409144092E+01   -3.5087234702E+01
   -3.4756144198E+01   -3.4415867444E+01   -3.4066449171E+01   -3.3707989350E+01
   -3.3340647264E+01   -3.2964643336E+01   -3.2580260044E+01   -3.2187840424E+01
   -3.1787785547E+01   -3.1380550618E+01   -3.0966639941E+01   -3.0546601000E+01
   -3.0121017874E+01   -2.9690504212E+01   -2.9255696009E+01   -2.8817244390E+01
   -2.8375808621E+01   -2.7932049578E+01   -2.7486623722E+01   -2.7040177714E+01
   -2.6593344077E+01   -2.6146737380E+01   -2.5700951250E+01   -2.5256556977E+01
   -2.4814101149E+01   -2.4374106499E+01   -2.3937070288E+01   -2.3503466438E+01
   -2.3073744640E+01   -2.2648332746E+01   -2.2227637129E+01   -2.1812043865E+01
   -2.1401920516E+01   -2.0997616321E+01   -2.0599463528E+01   -2.0207778317E+01
   -1.9822861241E+01   -1.9444997192E+01   -1.9074456207E+01   -1.8711493330E+01
   -1.8356348645E+01   -1.8009246742E+01   -1.7670396454E+01   -1.7339990610E+01
   -1.7018205412E+01   -1.6705199832E+01   -1.6401114967E+01   -1.6106073347E+01
   -1.5820178221E+01   -1.5543512817E+01   -1.5276139591E+01   -1.5018099529E+01
   -1.4769411212E+01   -1.4530070269E+01   -1.4300048628E+01   -1.4079293769E+01
   -1.3867727902E+01   -1.3665247412E+01   -1.3471722155E+01   -1.3286994799E+01
   -1.3110880189E+01   -1.2943164725E+01   -1.2783605750E+01   -1.2631931397E+01
   -1.2487840891E+01   -1.2350980886E+01   -1.2220889613E+01   -1.2096952540E+01
   -1.1978449103E+01   -1.1864612158E+01   -1.1754675753E+01   -1.1647919949E+01
   -1.1543701777E+01   -1.1441483537E+01   -1.1340850177E+01   -1.1241490863E+01
   -1.1143192346E+01   -1.1045821219E+01   -1.0949318066E+01   -1.0853669633E+01
   -1.0758892605E+01   -1.0665024486E+01   -1.0572115723E+01   -1.0480219243E+01
   -1.0389386488E+01   -1.0299666248E+01   -1.0211100254E+01   -1.0123723420E+01
   -1.0037564864E+01   -9.9526472420E+00   -9.8689852726E+00   -9.7865892761E+00
   -9.7054653761E+00   -9.6256127956E+00   -9.5470280908E+00   -9.4697050708E+00
   -9.3936325532E+00   -9.3187977678E+00   -9.2451860895E+00   -9.1727795607E+00
   -9.1015594717E+00   -9.0315056149E+00   -8.9625960309E+00   -8.8948084081E+00
   -8.8281192807E+00   -8.7625046519E+00   -8.6979402911E+00   -8.6344014370E+00
   -8.5718634184E+00   -8.5103014293E+00   -8.4496909814E+00   -8.3900075280E+00
   -8.3312272351E+00   -8.2733264228E+00   -8.2162819844E+00   -8.1600716259E+00
   -8.1046731236E+00   -8.0500658248E+00   -7.9962287957E+00   -7.9431429100E+00
   -7.8907891064E+00   -7.8391497153E+00   -7.7882077230E+00   -7.7379467326E+00
   -7.6883514349E+00   -7.6394064673E+00   -7.5910979844E+00   -7.5434118260E+00
   -7.4963348457E+00   -7.4498534099E+00   -7.4039554475E+00   -7.3586284140E+00
   -7.3138608635E+00   -7.2696410656E+00   -7.2259582759E+00   -7.1828015297E+00
   -7.1401607303E+00   -7.0980255924E+00   -7.0563866420E+00   -7.0152342012E+00
   -6.9745593935E+00   -6.9343530826E+00   -6.8946069659E+00   -6.8553123910E+00
   -6.8164616048E+00   -6.7780463877E+00   -6.7400594908E+00   -6.7024931430E+00
   -6.6653404885E+00   -6.6285942585E+00   -6.5922478852E+00   -6.5562946048E+00
   -6.5207280927E+00   -6.4855420716E+00   -6.4507304229E+00   -6.4162873305E+00
   -6.3822068546E+00   -6.3484836065E+00   -6.3151118106E+00   -6.2820863983E+00
   -6.2494019437E+00   -6.2170534644E+00   -6.1850359316E+00   -6.1533444260E+00
   -6.1219742828E+00   -6.0909206414E+00   -6.0601791106E+00   -6.0297450279E+00
   -5.9996140785E+00   -5.9697818956E+00   -5.9402441625E+00   -5.9109967921E+00
   -5.8820354857E+00   -5.8533563237E+00   -5.8249552109E+00   -5.7968281960E+00
   -5.7689714303E+00   -5.7413809417E+00   -5.7140530289E+00   -5.6869838132E+00
   -5.6601696148E+00   -5.6336068488E+00   -5.6072916955E+00   -5.5812209640E+00
   -5.5553911749E+00   -5.5297990049E+00   -5.5044412902E+00   -5.4793146390E+00
   -5.4544160834E+00   -5.4297425083E+00   -5.4052908125E+00   -5.3810581599E+00
   -5.3570415102E+00   -5.3332380500E+00   -5.3096450281E+00   -5.2862595048E+00
   -5.2630789247E+00   -5.2401005765E+00   -5.2173217465E+00   -5.1947399858E+00
   -5.1723526663E+00   -5.1501572958E+00   -5.1281515088E+00   -5.1063327688E+00
   -5.0846987822E+00   -5.0632472637E+00   -5.0419757713E+00   -5.0208821856E+00
   -4.9999642909E+00   -4.9792197727E+00   -4.9586466321E+00   -4.9382427282E+00
   -4.9180058909E+00   -4.8979342049E+00   -4.8780256163E+00   -4.8582780820E+00
   -4.8386897686E+00   -4.8192587101E+00   -4.7999829730E+00   -4.7808608057E+00
   -4.7618903299E+00   -4.7430697060E+00   -4.7243972637E+00   -4.7058712131E+00
   -4.6874897928E+00   -4.6692514140E+00   -4.6511543755E+00   -4.6331969797E+00
   -4.6153777193E+00   -4.5976949819E+00   -4.5801471209E+00   -4.5627327098E+00
   -4.5454502256E+00   -4.5282980607E+00   -4.5112748684E+00   -4.4943792025E+00
   -4.4776095232E+00   -4.4609645229E+00   -4.4444428354E+00   -4.4280430091E+00
   -4.4117637447E+00   -4.3956037621E+00   -4.3795616997E+00   -4.3636362553E+00
   -4.3478262341E+00   -4.3321303658E+00   -4.3165473372E+00   -4.3010760360E+00
   -4.2857152664E+00   -4.2704637516E+00   -4.2553204049E+00   -4.2402841034E+00
   -4.2253536604E+00   -4.2105279540E+00   -4.1958059495E+00   -4.1811865530E+00
   -4.1666686016E+00   -4.1522511436E+00   -4.1379331425E+00   -4.1237135032E+00
   -4.1095912412E+00   -4.0955654037E+00   -4.0816349893E+00   -4.0677989524E+00
   -4.0540564267E+00   -4.0404064697E+00   -4.0268480842E+00   -4.0133803737E+00
   -4.0000024747E+00   -3.9867134848E+00   -3.9735124311E+00   -3.9603985364E+00
   -3.9473709439E+00   -3.9344287595E+00   -3.9215711320E+00   -3.9087972931E+00
   -3.8961064260E+00   -3.8834976500E+00   -3.8709702220E+00   -3.8585233823E+00
   -3.8461563454E+00   -3.8338682694E+00   -3.8216584837E+00   -3.8095262458E+00
   -3.7974707859E+00   -3.7854913474E+00   -3.7735872747E+00   -3.7617578599E+00
   -3.7500023520E+00   -3.7383200681E+00   -3.7267103686E+00   -3.7151725786E+00
   -3.7037059691E+00   -3.6923099190E+00   -3.6809838067E+00   -3.6697269886E+00
   -3.6585387605E+00   -3.6474185516E+00   -3.6363657608E+00   -3.6253797745E+00
   -3.6144599150E+00   -3.6036056516E+00   -3.5928164060E+00   -3.5820915934E+00
   -3.5714305642E+00   -3.5608328182E+00   -3.5502978024E+00   -3.5398249590E+00
   -3.5294136685E+00   -3.5190634523E+00   -3.5087737845E+00   -3.4985441334E+00
   -3.4883739110E+00   -3.4782626517E+00   -3.4682098591E+00   -3.4582150261E+00
   -3.4482775981E+00   -3.4383971143E+00   -3.4285731096E+00   -3.4188051007E+00
   -3.4090925677E+00   -3.3994350473E+00   -3.3898321074E+00   -3.3802832869E+00
   -3.3707881031E+00   -3.3613460829E+00   -3.3519568281E+00   -3.3426198994E+00
   -3.3333348525E+00   -3.3241011988E+00   -3.3149185747E+00   -3.3057865612E+00
   -3.2967047394E+00   -3.2876726452E+00   -3.2786899045E+00   -3.2697561327E+00
   -3.2608709304E+00   -3.2520338752E+00   -3.2432445616E+00   -3.2345026447E+00
   -3.2258077438E+00   -3.2171594782E+00   -3.2085574131E+00   -3.2000012362E+00
   -3.1914905866E+00   -3.1830251013E+00   -3.1746043898E+00   -3.1662280954E+00
   -3.1578959010E+00   -3.1496074605E+00   -3.1413624277E+00   -3.1331604053E+00
   -3.1250011110E+00   -3.1168842173E+00   -3.1088093942E+00   -3.1007762916E+00
   -3.0927845713E+00   -3.0848339524E+00   -3.0769241203E+00   -3.0690547603E+00
   -3.0612255196E+00   -3.0534361181E+00   -3.0456862699E+00   -3.0379756751E+00
   -3.0303040317E+00   -3.0226709942E+00   -3.0150763244E+00   -3.0075197363E+00
   -3.0000009439E+00   -2.9925196467E+00   -2.9850755415E+00   -2.9776683908E+00
   -2.9702979221E+00   -2.9629638626E+00   -2.9556659163E+00   -2.9484038142E+00
   -2.9411773218E+00   -2.9339861793E+00   -2.9268301266E+00   -2.9197088747E+00
   -2.9126221811E+00   -2.9055698169E+00   -2.8985515339E+00   -2.8915670846E+00
   -2.8846161891E+00   -2.8776986243E+00   -2.8708141688E+00   -2.8639625862E+00
   -2.8571436402E+00   -2.8503570627E+00   -2.8436026431E+00   -2.8368801697E+00
   -2.8301894173E+00   -2.8235301605E+00   -2.8169021449E+00   -2.8103051657E+00
   -2.8037390235E+00   -2.7972035035E+00   -2.7906983909E+00   -2.7842234468E+00
   -2.7777784664E+00   -2.7713632643E+00   -2.7649776358E+00   -2.7586213760E+00
   -2.7522942637E+00   -2.7459960882E+00   -2.7397266802E+00   -2.7334858444E+00
   -2.7272733856E+00   -2.7210891018E+00   -2.7149327716E+00   -2.7088042430E+00
   -2.7027033299E+00   -2.6966298461E+00   -2.6905836055E+00   -2.6845643872E+00
   -2.6785720419E+00   -2.6726063974E+00   -2.6666672762E+00   -2.6607545008E+00
   -2.6548678733E+00   -2.6490072217E+00   -2.6431723958E+00   -2.6373632266E+00
   -2.6315795448E+00   -2.6258211772E+00   -2.6200879252E+00   -2.6143796614E+00
   -2.6086962246E+00   -2.6030374534E+00   -2.5974031865E+00   -2.5917932393E+00
   -2.5862074638E+00   -2.5806457207E+00   -2.5751078560E+00   -2.5695937161E+00
   -2.5641031446E+00   -2.5586359569E+00   -2.5531920401E+00   -2.5477712474E+00
   -2.5423734322E+00   -2.5369984480E+00   -2.5316461316E+00   -2.5263163362E+00
   -2.5210089415E+00   -2.5157238078E+00   -2.5104607953E+00   -2.5052197641E+00
   -2.5000005475E+00   -2.4948030295E+00   -2.4896270847E+00   -2.4844725801E+00
   -2.4793393821E+00   -2.4742273569E+00   -2.4691363389E+00   -2.4640662340E+00
   -2.4590169151E+00   -2.4539882550E+00   -2.4489801268E+00   -2.4439923965E+00
   -2.4390249185E+00   -2.4340775979E+00   -2.4291503138E+00   -2.4242429449E+00
   -2.4193553700E+00   -2.4144874578E+00   -2.4096390765E+00   -2.4048101331E+00
   -2.4000005121E+00   -2.3952100978E+00   -2.3904387749E+00   -2.3856864164E+00
   -2.3809528994E+00   -2.3762381342E+00   -2.3715420108E+00   -2.3668644191E+00
   -2.3622052488E+00   -2.3575643800E+00   -2.3529416927E+00   -2.3483371032E+00
   -2.3437505064E+00   -2.3391817974E+00   -2.3346308711E+00   -2.3300976160E+00
   -2.3255819109E+00   -2.3210836793E+00   -2.3166028212E+00   -2.3121392365E+00
   -2.3076928250E+00   -2.3032634855E+00   -2.2988510910E+00   -2.2944555741E+00
   -2.2900768394E+00   -2.2857147915E+00   -2.2813693349E+00   -2.2770403741E+00
   -2.2727277911E+00   -2.2684315102E+00   -2.2641514466E+00   -2.2598875095E+00
   -2.2556396077E+00   -2.2514076503E+00   -2.2471915331E+00   -2.2429911649E+00
   -2.2388064741E+00   -2.2346373741E+00   -2.2304837780E+00   -2.2263455991E+00
   -2.2222227490E+00   -2.2181151171E+00   -2.2140226462E+00   -2.2099452537E+00
   -2.2058828568E+00   -2.2018353730E+00   -2.1978027193E+00   -2.1937847976E+00
   -2.1897815313E+00   -2.1857928530E+00   -2.1818186840E+00   -2.1778589454E+00
   -2.1739135582E+00   -2.1699824432E+00   -2.1660654964E+00   -2.1621626682E+00
   -2.1582738833E+00   -2.1543990667E+00   -2.1505381431E+00   -2.1466910373E+00
   -2.1428576641E+00   -2.1390379438E+00   -2.1352318205E+00   -2.1314392226E+00
   -2.1276600783E+00   -2.1238943160E+00   -2.1201418640E+00   -2.1164026337E+00
   -2.1126765642E+00   -2.1089635953E+00   -2.1052636589E+00   -2.1015766865E+00
   -2.0979026098E+00   -2.0942413605E+00   -2.0905928488E+00   -2.0869570274E+00
   -2.0833338341E+00   -2.0797232040E+00   -2.0761250717E+00   -2.0725393721E+00
   -2.0689660402E+00   -2.0654049870E+00   -2.0618561739E+00   -2.0583195388E+00
   -2.0547950198E+00   -2.0512825545E+00   -2.0477820810E+00   -2.0442935362E+00
   -2.0408168366E+00   -2.0373519452E+00   -2.0338988028E+00   -2.0304573503E+00
   -2.0270275284E+00   -2.0236092778E+00   -2.0202025393E+00   -2.0168072312E+00
   -2.0134233192E+00   -2.0100507472E+00   -2.0066894585E+00   -2.0033393967E+00
   -2.0000005054E+00   -1.9966727281E+00
  </PP_LOCAL>
 <PP_NONLOCAL>
   <PP_BETA.1
       type="real"
       size=" 602"
       columns="4"
       index="1"
       angular_momentum="0"
       cutoff_radius_index=" 216"
       cutoff_radius="    2.1500000000E+00" >
    0.0000000000E+00    2.8952235971E-02    5.7872373590E-02    8.6727889600E-02
    1.1548541625E-01    1.4411033231E-01    1.7256636983E-01    2.0081524181E-01
    2.2881629553E-01    2.5652619629E-01    2.8389864607E-01    3.1088414104E-01
    3.3742977191E-01    3.6347907059E-01    3.8897190601E-01    4.1384443202E-01
    4.3802908938E-01    4.6145466366E-01    4.8404640024E-01    5.0572617717E-01
    5.2641273621E-01    5.4602197145E-01    5.6446727488E-01    5.8165993768E-01
    5.9750960510E-01    6.1192478086E-01    6.2481338386E-01    6.3608334399E-01
    6.4564324210E-01    6.5340298535E-01    6.5927451368E-01    6.6317253231E-01
    6.6501526441E-01    6.6472521130E-01    6.6222993843E-01    6.5746283558E-01
    6.5036390146E-01    6.4088047252E-01    6.2896799374E-01    6.1459069764E-01
    5.9772228332E-01    5.7834654653E-01    5.5645795918E-01    5.3206219178E-01
    5.0517657223E-01    4.7583047439E-01    4.4406563018E-01    4.0993635876E-01
    3.7350970703E-01    3.3486548575E-01    2.9409625072E-01    2.5130714138E-01
    2.0661560165E-01    1.6015105716E-01    1.1205443370E-01    6.2477572826E-02
    1.1582558357E-02   -4.0459058117E-02   -9.3467218568E-02   -1.4725422828E-01
   -2.0162604026E-01   -2.5638324352E-01   -3.1132246991E-01   -3.6623778942E-01
   -4.2092188713E-01   -4.7516789958E-01   -5.2877081168E-01   -5.8152891096E-01
   -6.3324544542E-01   -6.8373063381E-01   -7.3280284907E-01   -7.8029038396E-01
   -8.2603291828E-01   -8.6988338341E-01   -9.1170938596E-01   -9.5139441234E-01