<UPF version="2.0.1">
  <PP_INFO>

 Sc_ONCV_PBE_FR-1.0.upf

 This pseudopotential file has been produced using the code
 ONCVPSP  (Optimized Norm-Conservinng Vanderbilt PSeudopotential)
 fully-relativistic version 2.1.1, 03/26/2014 by D. R. Hamann
 The code is available through a link at URL www.mat-simresearch.com.
 Documentation with the package provides a full description of the
 input data below.

 While it is not required under the terms of the GNU GPL, it is
 suggested that you cite D. R. Hamann, Phys. Rev. B 88, 085117 (2013)
 in any publication using these pseudopotentials.

 -----

 This pseudopotential was produced with the SG15 1.0 and/or 1.1
 parameter sets, the Schlipf-Gygi norm-conserving pseudopotential
 library. For details of the construction and testing of the
 pseudopotential please refer to:

 M. Schlipf, F. Gygi, Comp. Phys. Comm. 196, 36 (2015)
 http://dx.doi.org/10.1016/j.cpc.2015.05.011

 The above authors kindly ask that you include this reference in all
 publications associated to this pseudopotential.

 Please note this fully-relativistic version does not employ the
 above self-consistent procedure at the fully-relativistic level.

 -----

 This pseudopotential was produced by Peter Scherpelz for the purpose
 of performing GW calculations with spin-orbit-coupling. Please see
 the publication:

 P. Scherpelz, M. Govoni, I. Hamada, G. Galli; J. Chem. Theory Comput. (2016)
 http://dx.doi.org/10.1021/acs.jctc.6b00114

 If you use these pseudopotentials in your work, we also kindly ask
 that you cite the above publication.

 -----

 This work is licensed under the Creative Commons Attribution-ShareAlike 
 4.0 International License. To view a copy of this license, visit 
 http://creativecommons.org/licenses/by-sa/4.0/ or send a letter to 
 Creative Commons, PO Box 1866, Mountain View, CA 94042, USA.

 The SG15 library is Copyright 2015 The Regents of the University of
 California.  Further modifications of these files are Copyright 2016
 Peter Scherpelz.

    <PP_INPUTFILE>
# ATOM AND REFERENCE CONFIGURATION
# atsym  z    nc    nv    iexc   psfile
  Sc 21.00     3     4     4      upf
#
#   n    l    f        energy (Ha)
    1    0    2.00
    2    0    2.00
    2    1    6.00
    3    0    2.00
    3    1    6.00
    4    0    2.00
    3    2    1.00
#
# PSEUDOPOTENTIAL AND OPTIMIZATION
# lmax
    2
#
#   l,   rc,     ep,   ncon, nbas, qcut
    0    2.91   -2.02    5    8    3.57
    1    2.95   -1.23    5    8    6.69
    2    2.38   -0.12    5    8    6.44
#
# LOCAL POTENTIAL
# lloc, lpopt,  rc(5),   dvloc0
    4    5      1.92       0.00
#
# VANDERBILT-KLEINMAN-BYLANDER PROJECTORs
# l, nproj, debl
    0    2    1.8686
    1    2    1.4087
    2    2    0.2300
#
# MODEL CORE CHARGE
# icmod, fcfact
    0    0.00
#
# LOG DERIVATIVE ANALYSIS
# epsh1, epsh2, depsh
   -5.00    3.00    0.02
#
# OUTPUT GRID
# rlmax, drl
    6.00    0.01
#
# TEST CONFIGURATIONS
# ncnf
    0
# nvcnf
#   n    l    f
    </PP_INPUTFILE>
  </PP_INFO>
  <!--                               -->
  <!-- END OF HUMAN READABLE SECTION -->
  <!--                               -->
    <PP_HEADER
       generated="Generated using ONCVPSP code by D. R. Hamann"
       author="anonymous"
       date="150703"
       comment=""
       element="Sc"
       pseudo_type="NC"
       relativistic="full"
       is_ultrasoft="F"
       is_paw="F"
       is_coulomb="F"
       has_so="T"
       has_wfc="F"
       has_gipaw="F"
       core_correction="F"
       functional="PBE"
       z_valence="   11.00"
       total_psenergy="  -4.57726732729E+01"
       rho_cutoff="   6.01000000000E+00"
       l_max="2"
       l_local="-1"
       mesh_size="   602"
       number_of_wfc="0"
       number_of_proj="10"/>
 <PP_MESH>
   <PP_R type="real"  size=" 602" columns="8">
    0.0000    0.0100    0.0200    0.0300    0.0400    0.0500    0.0600    0.0700
    0.0800    0.0900    0.1000    0.1100    0.1200    0.1300    0.1400    0.1500
    0.1600    0.1700    0.1800    0.1900    0.2000    0.2100    0.2200    0.2300
    0.2400    0.2500    0.2600    0.2700    0.2800    0.2900    0.3000    0.3100
    0.3200    0.3300    0.3400    0.3500    0.3600    0.3700    0.3800    0.3900
    0.4000    0.4100    0.4200    0.4300    0.4400    0.4500    0.4600    0.4700
    0.4800    0.4900    0.5000    0.5100    0.5200    0.5300    0.5400    0.5500
    0.5600    0.5700    0.5800    0.5900    0.6000    0.6100    0.6200    0.6300
    0.6400    0.6500    0.6600    0.6700    0.6800    0.6900    0.7000    0.7100
    0.7200    0.7300    0.7400    0.7500    0.7600    0.7700    0.7800    0.7900
    0.8000    0.8100    0.8200    0.8300    0.8400    0.8500    0.8600    0.8700
    0.8800    0.8900    0.9000    0.9100    0.9200    0.9300    0.9400    0.9500
    0.9600    0.9700    0.9800    0.9900    1.0000    1.0100    1.0200    1.0300
    1.0400    1.0500    1.0600    1.0700    1.0800    1.0900    1.1000    1.1100
    1.1200    1.1300    1.1400    1.1500    1.1600    1.1700    1.1800    1.1900
    1.2000    1.2100    1.2200    1.2300    1.2400    1.2500    1.2600    1.2700
    1.2800    1.2900    1.3000    1.3100    1.3200    1.3300    1.3400    1.3500
    1.3600    1.3700    1.3800    1.3900    1.4000    1.4100    1.4200    1.4300
    1.4400    1.4500    1.4600    1.4700    1.4800    1.4900    1.5000    1.5100
    1.5200    1.5300    1.5400    1.5500    1.5600    1.5700    1.5800    1.5900
    1.6000    1.6100    1.6200    1.6300    1.6400    1.6500    1.6600    1.6700
    1.6800    1.6900    1.7000    1.7100    1.7200    1.7300    1.7400    1.7500
    1.7600    1.7700    1.7800    1.7900    1.8000    1.8100    1.8200    1.8300
    1.8400    1.8500    1.8600    1.8700    1.8800    1.8900    1.9000    1.9100
    1.9200    1.9300    1.9400    1.9500    1.9600    1.9700    1.9800    1.9900
    2.0000    2.0100    2.0200    2.0300    2.0400    2.0500    2.0600    2.0700
    2.0800    2.0900    2.1000    2.1100    2.1200    2.1300    2.1400    2.1500
    2.1600    2.1700    2.1800    2.1900    2.2000    2.2100    2.2200    2.2300
    2.2400    2.2500    2.2600    2.2700    2.2800    2.2900    2.3000    2.3100
    2.3200    2.3300    2.3400    2.3500    2.3600    2.3700    2.3800    2.3900
    2.4000    2.4100    2.4200    2.4300    2.4400    2.4500    2.4600    2.4700
    2.4800    2.4900    2.5000    2.5100    2.5200    2.5300    2.5400    2.5500
    2.5600    2.5700    2.5800    2.5900    2.6000    2.6100    2.6200    2.6300
    2.6400    2.6500    2.6600    2.6700    2.6800    2.6900    2.7000    2.7100
    2.7200    2.7300    2.7400    2.7500    2.7600    2.7700    2.7800    2.7900
    2.8000    2.8100    2.8200    2.8300    2.8400    2.8500    2.8600    2.8700
    2.8800    2.8900    2.9000    2.9100    2.9200    2.9300    2.9400    2.9500
    2.9600    2.9700    2.9800    2.9900    3.0000    3.0100    3.0200    3.0300
    3.0400    3.0500    3.0600    3.0700    3.0800    3.0900    3.1000    3.1100
    3.1200    3.1300    3.1400    3.1500    3.1600    3.1700    3.1800    3.1900
    3.2000    3.2100    3.2200    3.2300    3.2400    3.2500    3.2600    3.2700
    3.2800    3.2900    3.3000    3.3100    3.3200    3.3300    3.3400    3.3500
    3.3600    3.3700    3.3800    3.3900    3.4000    3.4100    3.4200    3.4300
    3.4400    3.4500    3.4600    3.4700    3.4800    3.4900    3.5000    3.5100
    3.5200    3.5300    3.5400    3.5500    3.5600    3.5700    3.5800    3.5900
    3.6000    3.6100    3.6200    3.6300    3.6400    3.6500    3.6600    3.6700
    3.6800    3.6900    3.7000    3.7100    3.7200    3.7300    3.7400    3.7500
    3.7600    3.7700    3.7800    3.7900    3.8000    3.8100    3.8200    3.8300
    3.8400    3.8500    3.8600    3.8700    3.8800    3.8900    3.9000    3.9100
    3.9200    3.9300    3.9400    3.9500    3.9600    3.9700    3.9800    3.9900
    4.0000    4.0100    4.0200    4.0300    4.0400    4.0500    4.0600    4.0700
    4.0800    4.0900    4.1000    4.1100    4.1200    4.1300    4.1400    4.1500
    4.1600    4.1700    4.1800    4.1900    4.2000    4.2100    4.2200    4.2300
    4.2400    4.2500    4.2600    4.2700    4.2800    4.2900    4.3000    4.3100
    4.3200    4.3300    4.3400    4.3500    4.3600    4.3700    4.3800    4.3900
    4.4000    4.4100    4.4200    4.4300    4.4400    4.4500    4.4600    4.4700
    4.4800    4.4900    4.5000    4.5100    4.5200    4.5300    4.5400    4.5500
    4.5600    4.5700    4.5800    4.5900    4.6000    4.6100    4.6200    4.6300
    4.6400    4.6500    4.6600    4.6700    4.6800    4.6900    4.7000    4.7100
    4.7200    4.7300    4.7400    4.7500    4.7600    4.7700    4.7800    4.7900
    4.8000    4.8100    4.8200    4.8300    4.8400    4.8500    4.8600    4.8700
    4.8800    4.8900    4.9000    4.9100    4.9200    4.9300    4.9400    4.9500
    4.9600    4.9700    4.9800    4.9900    5.0000    5.0100    5.0200    5.0300
    5.0400    5.0500    5.0600    5.0700    5.0800    5.0900    5.1000    5.1100
    5.1200    5.1300    5.1400    5.1500    5.1600    5.1700    5.1800    5.1900
    5.2000    5.2100    5.2200    5.2300    5.2400    5.2500    5.2600    5.2700
    5.2800    5.2900    5.3000    5.3100    5.3200    5.3300    5.3400    5.3500
    5.3600    5.3700    5.3800    5.3900    5.4000    5.4100    5.4200    5.4300
    5.4400    5.4500    5.4600    5.4700    5.4800    5.4900    5.5000    5.5100
    5.5200    5.5300    5.5400    5.5500    5.5600    5.5700    5.5800    5.5900
    5.6000    5.6100    5.6200    5.6300    5.6400    5.6500    5.6600    5.6700
    5.6800    5.6900    5.7000    5.7100    5.7200    5.7300    5.7400    5.7500
    5.7600    5.7700    5.7800    5.7900    5.8000    5.8100    5.8200    5.8300
    5.8400    5.8500    5.8600    5.8700    5.8800    5.8900    5.9000    5.9100
    5.9200    5.9300    5.9400    5.9500    5.9600    5.9700    5.9800    5.9900
    6.0000    6.0100
   </PP_R>
   <PP_RAB type="real"  size=" 602" columns="8">
    0.0100    0.0100    0.0100    0.0100    0.0100    0.0100    0.0100    0.0100
    0.0100    0.0100    0.0100    0.0100    0.0100    0.0100    0.0100    0.0100
    0.0100    0.0100    0.0100    0.0100    0.0100    0.0100    0.0100    0.0100
    0.0100    0.0100    0.0100    0.0100    0.0100    0.0100    0.0100    0.0100
    0.0100    0.0100    0.0100    0.0100    0.0100    0.0100    0.0100    0.0100
    0.0100    0.0100    0.0100    0.0100    0.0100    0.0100    0.0100    0.0100
    0.0100    0.0100    0.0100    0.0100    0.0100    0.0100    0.0100    0.0100
    0.0100    0.0100    0.0100    0.0100    0.0100    0.0100    0.0100    0.0100
    0.0100    0.0100    0.0100    0.0100    0.0100    0.0100    0.0100    0.0100
    0.0100    0.0100    0.0100    0.0100    0.0100    0.0100    0.0100    0.0100
    0.0100    0.0100    0.0100    0.0100    0.0100    0.0100    0.0100    0.0100
    0.0100    0.0100    0.0100    0.0100    0.0100    0.0100    0.0100    0.0100
    0.0100    0.0100    0.0100    0.0100    0.0100    0.0100    0.0100    0.0100
    0.0100    0.0100    0.0100    0.0100    0.0100    0.0100    0.0100    0.0100
    0.0100    0.0100    0.0100    0.0100    0.0100    0.0100    0.0100    0.0100
    0.0100    0.0100    0.0100    0.0100    0.0100    0.0100    0.0100    0.0100
    0.0100    0.0100    0.0100    0.0100    0.0100    0.0100    0.0100    0.0100
    0.0100    0.0100    0.0100    0.0100    0.0100    0.0100    0.0100    0.0100
    0.0100    0.0100    0.0100    0.0100    0.0100    0.0100    0.0100    0.0100
    0.0100    0.0100    0.0100    0.0100    0.0100    0.0100    0.0100    0.0100
    0.0100    0.0100    0.0100    0.0100    0.0100    0.0100    0.0100    0.0100
    0.0100    0.0100    0.0100    0.0100    0.0100    0.0100    0.0100    0.0100
    0.0100    0.0100    0.0100    0.0100    0.0100    0.0100    0.0100    0.0100
    0.0100    0.0100    0.0100    0.0100    0.0100    0.0100    0.0100    0.0100
    0.0100    0.0100    0.0100    0.0100    0.0100    0.0100    0.0100    0.0100
    0.0100    0.0100    0.0100    0.0100    0.0100    0.0100    0.0100    0.0100
    0.0100    0.0100    0.0100    0.0100    0.0100    0.0100    0.0100    0.0100
    0.0100    0.0100    0.0100    0.0100    0.0100    0.0100    0.0100    0.0100
    0.0100    0.0100    0.0100    0.0100    0.0100    0.0100    0.0100    0.0100
    0.0100    0.0100    0.0100    0.0100    0.0100    0.0100    0.0100    0.0100
    0.0100    0.0100    0.0100    0.0100    0.0100    0.0100    0.0100    0.0100
    0.0100    0.0100    0.0100    0.0100    0.0100    0.0100    0.0100    0.0100
    0.0100    0.0100    0.0100    0.0100    0.0100    0.0100    0.0100    0.0100
    0.0100    0.0100    0.0100    0.0100    0.0100    0.0100    0.0100    0.0100
    0.0100    0.0100    0.0100    0.0100    0.0100    0.0100    0.0100    0.0100
    0.0100    0.0100    0.0100    0.0100    0.0100    0.0100    0.0100    0.0100
    0.0100    0.0100    0.0100    0.0100    0.0100    0.0100    0.0100    0.0100
    0.0100    0.0100    0.0100    0.0100    0.0100    0.0100    0.0100    0.0100
    0.0100    0.0100    0.0100    0.0100    0.0100    0.0100    0.0100    0.0100
    0.0100    0.0100    0.0100    0.0100    0.0100    0.0100    0.0100    0.0100
    0.0100    0.0100    0.0100    0.0100    0.0100    0.0100    0.0100    0.0100
    0.0100    0.0100    0.0100    0.0100    0.0100    0.0100    0.0100    0.0100
    0.0100    0.0100    0.0100    0.0100    0.0100    0.0100    0.0100    0.0100
    0.0100    0.0100    0.0100    0.0100    0.0100    0.0100    0.0100    0.0100
    0.0100    0.0100    0.0100    0.0100    0.0100    0.0100    0.0100    0.0100
    0.0100    0.0100    0.0100    0.0100    0.0100    0.0100    0.0100    0.0100
    0.0100    0.0100    0.0100    0.0100    0.0100    0.0100    0.0100    0.0100
    0.0100    0.0100    0.0100    0.0100    0.0100    0.0100    0.0100    0.0100
    0.0100    0.0100    0.0100    0.0100    0.0100    0.0100    0.0100    0.0100
    0.0100    0.0100    0.0100    0.0100    0.0100    0.0100    0.0100    0.0100
    0.0100    0.0100    0.0100    0.0100    0.0100    0.0100    0.0100    0.0100
    0.0100    0.0100    0.0100    0.0100    0.0100    0.0100    0.0100    0.0100
    0.0100    0.0100    0.0100    0.0100    0.0100    0.0100    0.0100    0.0100
    0.0100    0.0100    0.0100    0.0100    0.0100    0.0100    0.0100    0.0100
    0.0100    0.0100    0.0100    0.0100    0.0100    0.0100    0.0100    0.0100
    0.0100    0.0100    0.0100    0.0100    0.0100    0.0100    0.0100    0.0100
    0.0100    0.0100    0.0100    0.0100    0.0100    0.0100    0.0100    0.0100
    0.0100    0.0100    0.0100    0.0100    0.0100    0.0100    0.0100    0.0100
    0.0100    0.0100    0.0100    0.0100    0.0100    0.0100    0.0100    0.0100
    0.0100    0.0100    0.0100    0.0100    0.0100    0.0100    0.0100    0.0100
    0.0100    0.0100    0.0100    0.0100    0.0100    0.0100    0.0100    0.0100
    0.0100    0.0100    0.0100    0.0100    0.0100    0.0100    0.0100    0.0100
    0.0100    0.0100    0.0100    0.0100    0.0100    0.0100    0.0100    0.0100
    0.0100    0.0100    0.0100    0.0100    0.0100    0.0100    0.0100    0.0100
    0.0100    0.0100    0.0100    0.0100    0.0100    0.0100    0.0100    0.0100
    0.0100    0.0100    0.0100    0.0100    0.0100    0.0100    0.0100    0.0100
    0.0100    0.0100    0.0100    0.0100    0.0100    0.0100    0.0100    0.0100
    0.0100    0.0100    0.0100    0.0100    0.0100    0.0100    0.0100    0.0100
    0.0100    0.0100    0.0100    0.0100    0.0100    0.0100    0.0100    0.0100
    0.0100    0.0100    0.0100    0.0100    0.0100    0.0100    0.0100    0.0100
    0.0100    0.0100    0.0100    0.0100    0.0100    0.0100    0.0100    0.0100
    0.0100    0.0100    0.0100    0.0100    0.0100    0.0100    0.0100    0.0100
    0.0100    0.0100    0.0100    0.0100    0.0100    0.0100    0.0100    0.0100
    0.0100    0.0100    0.0100    0.0100    0.0100    0.0100    0.0100    0.0100
    0.0100    0.0100    0.0100    0.0100    0.0100    0.0100    0.0100    0.0100
    0.0100    0.0100
   </PP_RAB>
 </PP_MESH>
  <PP_LOCAL type="real"  size=" 602" columns="4">
   -2.6058271677E+01   -2.6058205927E+01   -2.6058204994E+01   -2.6058036801E+01
   -2.6057469271E+01   -2.6056210263E+01   -2.6053934106E+01   -2.6050308447E+01
   -2.6045018222E+01   -2.6037784548E+01   -2.6028377452E+01   -2.6016622399E+01
   -2.6002401393E+01   -2.5985649833E+01   -2.5966350505E+01   -2.5944525956E+01
   -2.5920230323E+01   -2.5893541382E+01   -2.5864553323E+01   -2.5833370538E+01
   -2.5800102501E+01   -2.5764859744E+01   -2.5727750802E+01   -2.5688880013E+01
   -2.5648346011E+01   -2.5606240783E+01   -2.5562649140E+01   -2.5517648512E+01
   -2.5471308975E+01   -2.5423693419E+01   -2.5374857832E+01   -2.5324851636E+01
   -2.5273718058E+01   -2.5221494518E+01   -2.5168212995E+01   -2.5113900428E+01
   -2.5058579034E+01   -2.5002266687E+01   -2.4944977229E+01   -2.4886720774E+01
   -2.4827504022E+01   -2.4767330539E+01   -2.4706201042E+01   -2.4644113666E+01
   -2.4581064240E+01   -2.4517046553E+01   -2.4452052618E+01   -2.4386072943E+01
   -2.4319096797E+01   -2.4251112478E+01   -2.4182107582E+01   -2.4112069278E+01
   -2.4040984569E+01   -2.3968840567E+01   -2.3895624749E+01   -2.3821325214E+01
   -2.3745930941E+01   -2.3669432000E+01   -2.3591819811E+01   -2.3513087314E+01
   -2.3433229177E+01   -2.3352241984E+01   -2.3270124290E+01   -2.3186876890E+01
   -2.3102502785E+01   -2.3017007255E+01   -2.2930398025E+01   -2.2842685151E+01
   -2.2753881035E+01   -2.2664000421E+01   -2.2573060359E+01   -2.2481080069E+01
   -2.2388080869E+01   -2.2294086053E+01   -2.2199120778E+01   -2.2103211951E+01
   -2.2006388039E+01   -2.1908678938E+01   -2.1810115819E+01   -2.1710730973E+01
   -2.1610557664E+01   -2.1509629978E+01   -2.1407982680E+01   -2.1305651077E+01
   -2.1202670891E+01   -2.1099078136E+01   -2.0994909008E+01   -2.0890199782E+01
   -2.0784986720E+01   -2.0679305986E+01   -2.0573193572E+01   -2.0466685233E+01
   -2.0359816428E+01   -2.0252622271E+01   -2.0145137488E+01   -2.0037396382E+01
   -1.9929432800E+01   -1.9821280128E+01   -1.9712971217E+01   -1.9604538411E+01
   -1.9496013524E+01   -1.9387427823E+01   -1.9278812028E+01   -1.9170196315E+01
   -1.9061610282E+01   -1.8953082926E+01   -1.8844642693E+01   -1.8736317448E+01
   -1.8628134513E+01   -1.8520120588E+01   -1.8412301753E+01   -1.8304703520E+01
   -1.8197350834E+01   -1.8090268056E+01   -1.7983478830E+01   -1.7877006242E+01
   -1.7770872820E+01   -1.7665100425E+01   -1.7559710195E+01   -1.7454722690E+01
   -1.7350157963E+01   -1.7246035134E+01   -1.7142372758E+01   -1.7039188856E+01
   -1.6936500572E+01   -1.6834324331E+01   -1.6732676050E+01   -1.6631570769E+01
   -1.6531022707E+01   -1.6431045627E+01   -1.6331652308E+01   -1.6232854716E+01
   -1.6134664429E+01   -1.6037091807E+01   -1.5940146582E+01   -1.5843838052E+01
   -1.5748174109E+01   -1.5653162379E+01   -1.5558809577E+01   -1.5465121391E+01
   -1.5372103364E+01   -1.5279759570E+01   -1.5188093849E+01   -1.5097109253E+01
   -1.5006807837E+01   -1.4917191676E+01   -1.4828261365E+01   -1.4740017611E+01
   -1.4652460160E+01   -1.4565588373E+01   -1.4479401249E+01   -1.4393897052E+01
   -1.4309074127E+01   -1.4224929966E+01   -1.4141462251E+01   -1.4058668086E+01
   -1.3976544644E+01   -1.3895088820E+01   -1.3814297534E+01   -1.3734167609E+01
   -1.3654695961E+01   -1.3575879471E+01   -1.3497715257E+01   -1.3420200382E+01
   -1.3343332322E+01   -1.3267108430E+01   -1.3191526632E+01   -1.3116584658E+01
   -1.3042280911E+01   -1.2968613559E+01   -1.2895581449E+01   -1.2823183206E+01
   -1.2751418042E+01   -1.2680285011E+01   -1.2609783571E+01   -1.2539913128E+01
   -1.2470673249E+01   -1.2402063551E+01   -1.2334083582E+01   -1.2266732958E+01
   -1.2200011097E+01   -1.2133917343E+01   -1.2068450908E+01   -1.2003610526E+01
   -1.1939395168E+01   -1.1875802574E+01   -1.1812831474E+01   -1.1750478421E+01
   -1.1688741273E+01   -1.1627615774E+01   -1.1567098270E+01   -1.1507183907E+01
   -1.1447866948E+01   -1.1389142049E+01   -1.1331002559E+01   -1.1273442384E+01
   -1.1216455080E+01   -1.1160034391E+01   -1.1104173816E+01   -1.1048866832E+01
   -1.0994106929E+01   -1.0939887177E+01   -1.0886201010E+01   -1.0833041219E+01
   -1.0780400846E+01   -1.0728272709E+01   -1.0676649354E+01   -1.0625523619E+01
   -1.0574887758E+01   -1.0524734289E+01   -1.0475055554E+01   -1.0425843786E+01
   -1.0377091298E+01   -1.0328790337E+01   -1.0280933105E+01   -1.0233511944E+01
   -1.0186519300E+01   -1.0139947299E+01   -1.0093788862E+01   -1.0048036475E+01
   -1.0002682878E+01   -9.9577214848E+00   -9.9131449305E+00   -9.8689471066E+00
   -9.8251218070E+00   -9.7816622356E+00   -9.7385635034E+00   -9.6958196526E+00
   -9.6534253058E+00   -9.6113762229E+00   -9.5696669701E+00   -9.5282936959E+00
   -9.4872527349E+00   -9.4465392990E+00   -9.4061509179E+00   -9.3660843023E+00
   -9.3263358371E+00   -9.2869036599E+00   -9.2477850222E+00   -9.2089773802E+00
   -9.1704790949E+00   -9.1322880166E+00   -9.0944021823E+00   -9.0568198277E+00
   -9.0195391643E+00   -8.9825582239E+00   -8.9458749679E+00   -8.9094876206E+00
   -8.8733939440E+00   -8.8375916395E+00   -8.8020788047E+00   -8.7668528436E+00
   -8.7319111459E+00   -8.6972515163E+00   -8.6628710635E+00   -8.6287668970E+00
   -8.5949364663E+00   -8.5613767052E+00   -8.5280845184E+00   -8.4950570274E+00
   -8.4622911016E+00   -8.4297835529E+00   -8.3975312760E+00   -8.3655311369E+00
   -8.3337799831E+00   -8.3022746257E+00   -8.2710119349E+00   -8.2399889130E+00
   -8.2092024371E+00   -8.1786493574E+00   -8.1483269191E+00   -8.1182321889E+00
   -8.0883619731E+00   -8.0587138028E+00   -8.0292849321E+00   -8.0000723618E+00
   -7.9710736682E+00   -7.9422863776E+00   -7.9137077759E+00   -7.8853353881E+00
   -7.8571670242E+00   -7.8292002726E+00   -7.8014325900E+00   -7.7738620335E+00
   -7.7464864091E+00   -7.7193033172E+00   -7.6923108199E+00   -7.6655069284E+00
   -7.6388895082E+00   -7.6124564964E+00   -7.5862061024E+00   -7.5601363950E+00
   -7.5342452743E+00   -7.5085310502E+00   -7.4829919051E+00   -7.4576259148E+00
   -7.4324312592E+00   -7.4074063306E+00   -7.3825494006E+00   -7.3578585545E+00
   -7.3333323185E+00   -7.3089690938E+00   -7.2847672137E+00   -7.2607250259E+00
   -7.2368410653E+00   -7.2131137741E+00   -7.1895414841E+00   -7.1661227484E+00
   -7.1428561342E+00   -7.1197401538E+00   -7.0967731898E+00   -7.0739539677E+00
   -7.0512810731E+00   -7.0287530428E+00   -7.0063684314E+00   -6.9841259907E+00
   -6.9620243722E+00   -6.9400621442E+00   -6.9182380131E+00   -6.8965507566E+00
   -6.8749990892E+00   -6.8535816168E+00   -6.8322971747E+00   -6.8111445701E+00
   -6.7901225773E+00   -6.7692298456E+00   -6.7484653166E+00   -6.7278278317E+00
   -6.7073162164E+00   -6.6869291848E+00   -6.6666657473E+00   -6.6465247898E+00
   -6.6265051839E+00   -6.6066057197E+00   -6.5868254497E+00   -6.5671633118E+00
   -6.5476182273E+00   -6.5281890454E+00   -6.5088748637E+00   -6.4896746693E+00
   -6.4705874377E+00   -6.4516120606E+00   -6.4327476834E+00   -6.4139933408E+00
   -6.3953480653E+00   -6.3768107762E+00   -6.3583806698E+00   -6.3400568256E+00
   -6.3218383230E+00   -6.3037241370E+00   -6.2857134747E+00   -6.2678054726E+00
   -6.2499992530E+00   -6.2322938552E+00   -6.2146884780E+00   -6.1971823195E+00
   -6.1797745429E+00   -6.1624642556E+00   -6.1452506347E+00   -6.1281329426E+00
   -6.1111103814E+00   -6.0941821302E+00   -6.0773473331E+00   -6.0606053176E+00
   -6.0439553232E+00   -6.0273965893E+00   -6.0109282611E+00   -5.9945496883E+00
   -5.9782601598E+00   -5.9620589506E+00   -5.9459452823E+00   -5.9299184442E+00
   -5.9139777995E+00   -5.8981226571E+00   -5.8823523193E+00   -5.8666660062E+00
   -5.8510631547E+00   -5.8355431055E+00   -5.8201051996E+00   -5.8047487190E+00
   -5.7894730359E+00   -5.7742775662E+00   -5.7591616815E+00   -5.7441247502E+00
   -5.7291660531E+00   -5.7142850852E+00   -5.6994812473E+00   -5.6847539403E+00
   -5.6701025221E+00   -5.6555263926E+00   -5.6410250360E+00   -5.6265978809E+00
   -5.6122443561E+00   -5.5979638164E+00   -5.5837557638E+00   -5.5696196748E+00
   -5.5555550046E+00   -5.5415612015E+00   -5.5276376454E+00   -5.5137839011E+00
   -5.4999994493E+00   -5.4862837709E+00   -5.4726363176E+00   -5.4590565440E+00
   -5.4455440173E+00   -5.4320982423E+00   -5.4187187240E+00   -5.4054049231E+00
   -5.3921563545E+00   -5.3789725914E+00   -5.3658531618E+00   -5.3527975937E+00
   -5.3398053615E+00   -5.3268760262E+00   -5.3140091715E+00   -5.3012043474E+00
   -5.2884611038E+00   -5.2757789334E+00   -5.2631574297E+00   -5.2505961914E+00
   -5.2380947893E+00   -5.2256527945E+00   -5.2132697215E+00   -5.2009451842E+00
   -5.1886788003E+00   -5.1764701608E+00   -5.1643188565E+00   -5.1522244276E+00
   -5.1401864970E+00   -5.1282047052E+00   -5.1162786620E+00   -5.1044079777E+00
   -5.0925922215E+00   -5.0808310142E+00   -5.0691240226E+00   -5.0574708752E+00
   -5.0458711999E+00   -5.0343245991E+00   -5.0228306810E+00   -5.0113891423E+00
   -4.9999996286E+00   -4.9886617854E+00   -4.9773752512E+00   -4.9661396125E+00
   -4.9549545984E+00   -4.9438198711E+00   -4.9327350926E+00   -4.9216999248E+00
   -4.9107139722E+00   -4.8997769507E+00   -4.8888885539E+00   -4.8780484596E+00
   -4.8672563455E+00   -4.8565118588E+00   -4.8458146723E+00   -4.8351645204E+00
   -4.8245610959E+00   -4.8140040916E+00   -4.8034932002E+00   -4.7930280461E+00
   -4.7826084038E+00   -4.7722339811E+00   -4.7619044849E+00   -4.7516196224E+00
   -4.7413790665E+00   -4.7311825303E+00   -4.7210297691E+00   -4.7109205038E+00
   -4.7008544551E+00   -4.6908313438E+00   -4.6808508288E+00   -4.6709127001E+00
   -4.6610166958E+00   -4.6511625497E+00   -4.6413499956E+00   -4.6315787471E+00
   -4.6218485163E+00   -4.6121590945E+00   -4.6025102282E+00   -4.5929016633E+00
   -4.5833331460E+00   -4.5738043836E+00   -4.5643151429E+00   -4.5548652071E+00
   -4.5454543341E+00   -4.5360822821E+00   -4.5267488089E+00   -4.5174536203E+00
   -4.5081965259E+00   -4.4989773049E+00   -4.4897957265E+00   -4.4806515601E+00
   -4.4715445742E+00   -4.4624744793E+00   -4.4534411148E+00   -4.4444442606E+00
   -4.4354836967E+00   -4.4265592032E+00   -4.4176705538E+00   -4.4088174830E+00
   -4.3999998337E+00   -4.3912173962E+00   -4.3824699607E+00   -4.3737573176E+00
   -4.3650792493E+00   -4.3564355050E+00   -4.3478259346E+00   -4.3392503382E+00
   -4.3307085158E+00   -4.3222002675E+00   -4.3137253884E+00   -4.3052836327E+00
   -4.2968748611E+00   -4.2884988829E+00   -4.2801555075E+00   -4.2718445442E+00
   -4.2635658024E+00   -4.2553190385E+00   -4.2471041212E+00   -4.2389208708E+00
   -4.2307691054E+00   -4.2226486433E+00   -4.2145593027E+00   -4.2065008602E+00
   -4.1984731695E+00   -4.1904760700E+00   -4.1825093882E+00   -4.1745729509E+00
   -4.1666665847E+00   -4.1587900895E+00   -4.1509432966E+00   -4.1431260670E+00
   -4.1353382354E+00   -4.1275796366E+00   -4.1198501055E+00   -4.1121494682E+00
   -4.1044775264E+00   -4.0968341653E+00   -4.0892192274E+00   -4.0816325552E+00
   -4.0740739912E+00   -4.0665433779E+00   -4.0590405201E+00   -4.0515652903E+00
   -4.0441175513E+00   -4.0366971528E+00   -4.0293039448E+00   -4.0219377769E+00
   -4.0145984866E+00   -4.0072859009E+00   -3.9999999136E+00   -3.9927403812E+00
   -3.9855071608E+00   -3.9783001090E+00   -3.9711190828E+00   -3.9639639062E+00
   -3.9568344576E+00   -3.9497306160E+00   -3.9426522448E+00   -3.9355992076E+00
   -3.9285713679E+00   -3.9215685879E+00   -3.9145906872E+00   -3.9076375808E+00
   -3.9007091385E+00   -3.8938052303E+00   -3.8869257258E+00   -3.8800704951E+00
   -3.8732393943E+00   -3.8664322762E+00   -3.8596490491E+00   -3.8528895888E+00
   -3.8461537713E+00   -3.8394414725E+00   -3.8327525683E+00   -3.8260869128E+00
   -3.8194443831E+00   -3.8128248842E+00   -3.8062282978E+00   -3.7996545055E+00
   -3.7931033890E+00   -3.7865748301E+00   -3.7800686846E+00   -3.7735848450E+00
   -3.7671232167E+00   -3.7606836867E+00   -3.7542661425E+00   -3.7478704711E+00
   -3.7414965597E+00   -3.7351442694E+00   -3.7288135000E+00   -3.7225041606E+00
   -3.7162161437E+00   -3.7099493417E+00   -3.7037036471E+00   -3.6974789524E+00
   -3.6912751269E+00   -3.6850920700E+00   -3.6789296980E+00   -3.6727879084E+00
   -3.6666665986E+00   -3.6605656661E+00
  </PP_LOCAL>
 <PP_NONLOCAL>
   <PP_BETA.1
       type="real"
       size=" 602"
       columns="4"
       index="1"
       angular_momentum="0"
       cutoff_radius_index=" 298"
       cutoff_radius="    2.9700000000E+00" >
    0.0000000000E+00   -2.1088551741E-03   -4.2332800649E-03   -6.3888176957E-03
   -8.5909577252E-03   -1.0855109822E-02   -1.3196577105E-02   -1.5630529677E-02
   -1.8171978272E-02   -2.0835748036E-02   -2.3636452477E-02   -2.6588467597E-02
   -2.9705906236E-02   -3.3002592662E-02   -3.6492037414E-02   -4.0187412453E-02
   -4.4101526628E-02   -4.8246801491E-02   -5.2635247507E-02   -5.7278440656E-02
   -6.2187499519E-02   -6.7373062793E-02   -7.2845267373E-02   -7.8613726940E-02
   -8.4687511178E-02   -9.1075125564E-02   -9.7784491863E-02   -1.0482292927E-01
   -1.1219713637E-01   -1.1991317381E-01   -1.2797644776E-01   -1.3639169432E-01
   -1.4516296478E-01   -1.5429361186E-01   -1.6378627660E-01   -1.7364287717E-01
   -1.8386459726E-01   -1.9445187720E-01   -2.0540440512E-01   -2.1672110938E-01
   -2.2840015279E-01   -2.4043892756E-01   -2.5283405168E-01   -2.6558136660E-01
   -2.7867593623E-01   -2.9211204738E-01   -3.0588321153E-01   -3.1998216804E-01
   -3.3440088882E-01   -3.4913058437E-01   -3.6416171131E-01   -3.7948398165E-01
   -3.9508637305E-01   -4.1095714128E-01   -4.2708383333E-01   -4.4345330275E-01
   -4.6005172644E-01   -4.7686462183E-01   -4.9387686791E-01   -5.1107272466E-01
   -5.2843585624E-01   -5.4594935657E-01   -5.6359576835E-01   -5.8135712022E-01
   -5.9921494583E-01   -6.1715031212E-01   -6.3514386112E-01   -6.5317583064E-01