<UPF version="2.0.1">
  <PP_INFO>

 Tl_ONCV_PBE_FR-1.0.upf

 This pseudopotential file has been produced using the code
 ONCVPSP  (Optimized Norm-Conservinng Vanderbilt PSeudopotential)
 fully-relativistic version 2.1.1, 03/26/2014 by D. R. Hamann
 The code is available through a link at URL www.mat-simresearch.com.
 Documentation with the package provides a full description of the
 input data below.

 While it is not required under the terms of the GNU GPL, it is
 suggested that you cite D. R. Hamann, Phys. Rev. B 88, 085117 (2013)
 in any publication using these pseudopotentials.

 -----

 This pseudopotential was produced with the SG15 1.0 and/or 1.1
 parameter sets, the Schlipf-Gygi norm-conserving pseudopotential
 library. For details of the construction and testing of the
 pseudopotential please refer to:

 M. Schlipf, F. Gygi, Comp. Phys. Comm. 196, 36 (2015)
 http://dx.doi.org/10.1016/j.cpc.2015.05.011

 The above authors kindly ask that you include this reference in all
 publications associated to this pseudopotential.

 Please note this fully-relativistic version does not employ the
 above self-consistent procedure at the fully-relativistic level.

 -----

 This pseudopotential was produced by Peter Scherpelz for the purpose
 of performing GW calculations with spin-orbit-coupling. Please see
 the publication:

 P. Scherpelz, M. Govoni, I. Hamada, G. Galli; J. Chem. Theory Comput. (2016)
 http://dx.doi.org/10.1021/acs.jctc.6b00114

 If you use these pseudopotentials in your work, we also kindly ask
 that you cite the above publication.

 -----

 This work is licensed under the Creative Commons Attribution-ShareAlike 
 4.0 International License. To view a copy of this license, visit 
 http://creativecommons.org/licenses/by-sa/4.0/ or send a letter to 
 Creative Commons, PO Box 1866, Mountain View, CA 94042, USA.

 The SG15 library is Copyright 2015 The Regents of the University of
 California.  Further modifications of these files are Copyright 2016
 Peter Scherpelz.

    <PP_INPUTFILE>
# ATOM AND REFERENCE CONFIGURATION
# atsym  z    nc    nv    iexc   psfile
  Tl 81.00    12     3     4      upf
#
#   n    l    f        energy (Ha)
    1    0    2.00
    2    0    2.00
    2    1    6.00
    3    0    2.00
    3    1    6.00
    3    2   10.00
    4    0    2.00
    4    1    6.00
    4    2   10.00
    4    3   14.00
    5    0    2.00
    5    1    6.00
    5    2   10.00
    6    0    2.00
    6    1    1.00
#
# PSEUDOPOTENTIAL AND OPTIMIZATION
# lmax
    3
#
#   l,   rc,     ep,   ncon, nbas, qcut
    0    3.31   -0.35    5    8    4.14
    1    3.64   -0.08    5    8    3.85
    2    3.16   -0.54    5    8    6.36
    3    3.35    0.27    5    8    6.11
#
# LOCAL POTENTIAL
# lloc, lpopt,  rc(5),   dvloc0
    4    5      2.74       0.00
#
# VANDERBILT-KLEINMAN-BYLANDER PROJECTORs
# l, nproj, debl
    0    2    1.2817
    1    2    0.8900
    2    2    1.1273
    3    2    1.2294
#
# MODEL CORE CHARGE
# icmod, fcfact
    0    0.00
#
# LOG DERIVATIVE ANALYSIS
# epsh1, epsh2, depsh
   -5.00    3.00    0.02
#
# OUTPUT GRID
# rlmax, drl
    6.00    0.01
#
# TEST CONFIGURATIONS
# ncnf
    0
# nvcnf
#   n    l    f
    </PP_INPUTFILE>
  </PP_INFO>
  <!--                               -->
  <!-- END OF HUMAN READABLE SECTION -->
  <!--                               -->
    <PP_HEADER
       generated="Generated using ONCVPSP code by D. R. Hamann"
       author="anonymous"
       date="150703"
       comment=""
       element="Tl"
       pseudo_type="NC"
       relativistic="full"
       is_ultrasoft="F"
       is_paw="F"
       is_coulomb="F"
       has_so="T"
       has_wfc="F"
       has_gipaw="F"
       core_correction="F"
       functional="PBE"
       z_valence="   13.00"
       total_psenergy="  -4.78490308426E+01"
       rho_cutoff="   6.01000000000E+00"
       l_max="3"
       l_local="-1"
       mesh_size="   602"
       number_of_wfc="0"
       number_of_proj="14"/>
 <PP_MESH>
   <PP_R type="real"  size=" 602" columns="8">
    0.0000    0.0100    0.0200    0.0300    0.0400    0.0500    0.0600    0.0700
    0.0800    0.0900    0.1000    0.1100    0.1200    0.1300    0.1400    0.1500
    0.1600    0.1700    0.1800    0.1900    0.2000    0.2100    0.2200    0.2300
    0.2400    0.2500    0.2600    0.2700    0.2800    0.2900    0.3000    0.3100
    0.3200    0.3300    0.3400    0.3500    0.3600    0.3700    0.3800    0.3900
    0.4000    0.4100    0.4200    0.4300    0.4400    0.4500    0.4600    0.4700
    0.4800    0.4900    0.5000    0.5100    0.5200    0.5300    0.5400    0.5500
    0.5600    0.5700    0.5800    0.5900    0.6000    0.6100    0.6200    0.6300
    0.6400    0.6500    0.6600    0.6700    0.6800    0.6900    0.7000    0.7100
    0.7200    0.7300    0.7400    0.7500    0.7600    0.7700    0.7800    0.7900
    0.8000    0.8100    0.8200    0.8300    0.8400    0.8500    0.8600    0.8700
    0.8800    0.8900    0.9000    0.9100    0.9200    0.9300    0.9400    0.9500
    0.9600    0.9700    0.9800    0.9900    1.0000    1.0100    1.0200    1.0300
    1.0400    1.0500    1.0600    1.0700    1.0800    1.0900    1.1000    1.1100
    1.1200    1.1300    1.1400    1.1500    1.1600    1.1700    1.1800    1.1900
    1.2000    1.2100    1.2200    1.2300    1.2400    1.2500    1.2600    1.2700
    1.2800    1.2900    1.3000    1.3100    1.3200    1.3300    1.3400    1.3500
    1.3600    1.3700    1.3800    1.3900    1.4000    1.4100    1.4200    1.4300
    1.4400    1.4500    1.4600    1.4700    1.4800    1.4900    1.5000    1.5100
    1.5200    1.5300    1.5400    1.5500    1.5600    1.5700    1.5800    1.5900
    1.6000    1.6100    1.6200    1.6300    1.6400    1.6500    1.6600    1.6700
    1.6800    1.6900    1.7000    1.7100    1.7200    1.7300    1.7400    1.7500
    1.7600    1.7700    1.7800    1.7900    1.8000    1.8100    1.8200    1.8300
    1.8400    1.8500    1.8600    1.8700    1.8800    1.8900    1.9000    1.9100
    1.9200    1.9300    1.9400    1.9500    1.9600    1.9700    1.9800    1.9900
    2.0000    2.0100    2.0200    2.0300    2.0400    2.0500    2.0600    2.0700
    2.0800    2.0900    2.1000    2.1100    2.1200    2.1300    2.1400    2.1500
    2.1600    2.1700    2.1800    2.1900    2.2000    2.2100    2.2200    2.2300
    2.2400    2.2500    2.2600    2.2700    2.2800    2.2900    2.3000    2.3100
    2.3200    2.3300    2.3400    2.3500    2.3600    2.3700    2.3800    2.3900
    2.4000    2.4100    2.4200    2.4300    2.4400    2.4500    2.4600    2.4700
    2.4800    2.4900    2.5000    2.5100    2.5200    2.5300    2.5400    2.5500
    2.5600    2.5700    2.5800    2.5900    2.6000    2.6100    2.6200    2.6300
    2.6400    2.6500    2.6600    2.6700    2.6800    2.6900    2.7000    2.7100
    2.7200    2.7300    2.7400    2.7500    2.7600    2.7700    2.7800    2.7900
    2.8000    2.8100    2.8200    2.8300    2.8400    2.8500    2.8600    2.8700
    2.8800    2.8900    2.9000    2.9100    2.9200    2.9300    2.9400    2.9500
    2.9600    2.9700    2.9800    2.9900    3.0000    3.0100    3.0200    3.0300
    3.0400    3.0500    3.0600    3.0700    3.0800    3.0900    3.1000    3.1100
    3.1200    3.1300    3.1400    3.1500    3.1600    3.1700    3.1800    3.1900
    3.2000    3.2100    3.2200    3.2300    3.2400    3.2500    3.2600    3.2700
    3.2800    3.2900    3.3000    3.3100    3.3200    3.3300    3.3400    3.3500
    3.3600    3.3700    3.3800    3.3900    3.4000    3.4100    3.4200    3.4300
    3.4400    3.4500    3.4600    3.4700    3.4800    3.4900    3.5000    3.5100
    3.5200    3.5300    3.5400    3.5500    3.5600    3.5700    3.5800    3.5900
    3.6000    3.6100    3.6200    3.6300    3.6400    3.6500    3.6600    3.6700
    3.6800    3.6900    3.7000    3.7100    3.7200    3.7300    3.7400    3.7500
    3.7600    3.7700    3.7800    3.7900    3.8000    3.8100    3.8200    3.8300
    3.8400    3.8500    3.8600    3.8700    3.8800    3.8900    3.9000    3.9100
    3.9200    3.9300    3.9400    3.9500    3.9600    3.9700    3.9800    3.9900
    4.0000    4.0100    4.0200    4.0300    4.0400    4.0500    4.0600    4.0700
    4.0800    4.0900    4.1000    4.1100    4.1200    4.1300    4.1400    4.1500
    4.1600    4.1700    4.1800    4.1900    4.2000    4.2100    4.2200    4.2300
    4.2400    4.2500    4.2600    4.2700    4.2800    4.2900    4.3000    4.3100
    4.3200    4.3300    4.3400    4.3500    4.3600    4.3700    4.3800    4.3900
    4.4000    4.4100    4.4200    4.4300    4.4400    4.4500    4.4600    4.4700
    4.4800    4.4900    4.5000    4.5100    4.5200    4.5300    4.5400    4.5500
    4.5600    4.5700    4.5800    4.5900    4.6000    4.6100    4.6200    4.6300
    4.6400    4.6500    4.6600    4.6700    4.6800    4.6900    4.7000    4.7100
    4.7200    4.7300    4.7400    4.7500    4.7600    4.7700    4.7800    4.7900
    4.8000    4.8100    4.8200    4.8300    4.8400    4.8500    4.8600    4.8700
    4.8800    4.8900    4.9000    4.9100    4.9200    4.9300    4.9400    4.9500
    4.9600    4.9700    4.9800    4.9900    5.0000    5.0100    5.0200    5.0300
    5.0400    5.0500    5.0600    5.0700    5.0800    5.0900    5.1000    5.1100
    5.1200    5.1300    5.1400    5.1500    5.1600    5.1700    5.1800    5.1900
    5.2000    5.2100    5.2200    5.2300    5.2400    5.2500    5.2600    5.2700
    5.2800    5.2900    5.3000    5.3100    5.3200    5.3300    5.3400    5.3500
    5.3600    5.3700    5.3800    5.3900    5.4000    5.4100    5.4200    5.4300
    5.4400    5.4500    5.4600    5.4700    5.4800    5.4900    5.5000    5.5100
    5.5200    5.5300    5.5400    5.5500    5.5600    5.5700    5.5800    5.5900
    5.6000    5.6100    5.6200    5.6300    5.6400    5.6500    5.6600    5.6700
    5.6800    5.6900    5.7000    5.7100    5.7200    5.7300    5.7400    5.7500
    5.7600    5.7700    5.7800    5.7900    5.8000    5.8100    5.8200    5.8300
    5.8400    5.8500    5.8600    5.8700    5.8800    5.8900    5.9000    5.9100
    5.9200    5.9300    5.9400    5.9500    5.9600    5.9700    5.9800    5.9900
    6.0000    6.0100
   </PP_R>
   <PP_RAB type="real"  size=" 602" columns="8">
    0.0100    0.0100    0.0100    0.0100    0.0100    0.0100    0.0100    0.0100
    0.0100    0.0100    0.0100    0.0100    0.0100    0.0100    0.0100    0.0100
    0.0100    0.0100    0.0100    0.0100    0.0100    0.0100    0.0100    0.0100
    0.0100    0.0100    0.0100    0.0100    0.0100    0.0100    0.0100    0.0100
    0.0100    0.0100    0.0100    0.0100    0.0100    0.0100    0.0100    0.0100
    0.0100    0.0100    0.0100    0.0100    0.0100    0.0100    0.0100    0.0100
    0.0100    0.0100    0.0100    0.0100    0.0100    0.0100    0.0100    0.0100
    0.0100    0.0100    0.0100    0.0100    0.0100    0.0100    0.0100    0.0100
    0.0100    0.0100    0.0100    0.0100    0.0100    0.0100    0.0100    0.0100
    0.0100    0.0100    0.0100    0.0100    0.0100    0.0100    0.0100    0.0100
    0.0100    0.0100    0.0100    0.0100    0.0100    0.0100    0.0100    0.0100
    0.0100    0.0100    0.0100    0.0100    0.0100    0.0100    0.0100    0.0100
    0.0100    0.0100    0.0100    0.0100    0.0100    0.0100    0.0100    0.0100
    0.0100    0.0100    0.0100    0.0100    0.0100    0.0100    0.0100    0.0100
    0.0100    0.0100    0.0100    0.0100    0.0100    0.0100    0.0100    0.0100
    0.0100    0.0100    0.0100    0.0100    0.0100    0.0100    0.0100    0.0100
    0.0100    0.0100    0.0100    0.0100    0.0100    0.0100    0.0100    0.0100
    0.0100    0.0100    0.0100    0.0100    0.0100    0.0100    0.0100    0.0100
    0.0100    0.0100    0.0100    0.0100    0.0100    0.0100    0.0100    0.0100
    0.0100    0.0100    0.0100    0.0100    0.0100    0.0100    0.0100    0.0100
    0.0100    0.0100    0.0100    0.0100    0.0100    0.0100    0.0100    0.0100
    0.0100    0.0100    0.0100    0.0100    0.0100    0.0100    0.0100    0.0100
    0.0100    0.0100    0.0100    0.0100    0.0100    0.0100    0.0100    0.0100
    0.0100    0.0100    0.0100    0.0100    0.0100    0.0100    0.0100    0.0100
    0.0100    0.0100    0.0100    0.0100    0.0100    0.0100    0.0100    0.0100
    0.0100    0.0100    0.0100    0.0100    0.0100    0.0100    0.0100    0.0100
    0.0100    0.0100    0.0100    0.0100    0.0100    0.0100    0.0100    0.0100
    0.0100    0.0100    0.0100    0.0100    0.0100    0.0100    0.0100    0.0100
    0.0100    0.0100    0.0100    0.0100    0.0100    0.0100    0.0100    0.0100
    0.0100    0.0100    0.0100    0.0100    0.0100    0.0100    0.0100    0.0100
    0.0100    0.0100    0.0100    0.0100    0.0100    0.0100    0.0100    0.0100
    0.0100    0.0100    0.0100    0.0100    0.0100    0.0100    0.0100    0.0100
    0.0100    0.0100    0.0100    0.0100    0.0100    0.0100    0.0100    0.0100
    0.0100    0.0100    0.0100    0.0100    0.0100    0.0100    0.0100    0.0100
    0.0100    0.0100    0.0100    0.0100    0.0100    0.0100    0.0100    0.0100
    0.0100    0.0100    0.0100    0.0100    0.0100    0.0100    0.0100    0.0100
    0.0100    0.0100    0.0100    0.0100    0.0100    0.0100    0.0100    0.0100
    0.0100    0.0100    0.0100    0.0100    0.0100    0.0100    0.0100    0.0100
    0.0100    0.0100    0.0100    0.0100    0.0100    0.0100    0.0100    0.0100
    0.0100    0.0100    0.0100    0.0100    0.0100    0.0100    0.0100    0.0100
    0.0100    0.0100    0.0100    0.0100    0.0100    0.0100    0.0100    0.0100
    0.0100    0.0100    0.0100    0.0100    0.0100    0.0100    0.0100    0.0100
    0.0100    0.0100    0.0100    0.0100    0.0100    0.0100    0.0100    0.0100
    0.0100    0.0100    0.0100    0.0100    0.0100    0.0100    0.0100    0.0100
    0.0100    0.0100    0.0100    0.0100    0.0100    0.0100    0.0100    0.0100
    0.0100    0.0100    0.0100    0.0100    0.0100    0.0100    0.0100    0.0100
    0.0100    0.0100    0.0100    0.0100    0.0100    0.0100    0.0100    0.0100
    0.0100    0.0100    0.0100    0.0100    0.0100    0.0100    0.0100    0.0100
    0.0100    0.0100    0.0100    0.0100    0.0100    0.0100    0.0100    0.0100
    0.0100    0.0100    0.0100    0.0100    0.0100    0.0100    0.0100    0.0100
    0.0100    0.0100    0.0100    0.0100    0.0100    0.0100    0.0100    0.0100
    0.0100    0.0100    0.0100    0.0100    0.0100    0.0100    0.0100    0.0100
    0.0100    0.0100    0.0100    0.0100    0.0100    0.0100    0.0100    0.0100
    0.0100    0.0100    0.0100    0.0100    0.0100    0.0100    0.0100    0.0100
    0.0100    0.0100    0.0100    0.0100    0.0100    0.0100    0.0100    0.0100
    0.0100    0.0100    0.0100    0.0100    0.0100    0.0100    0.0100    0.0100
    0.0100    0.0100    0.0100    0.0100    0.0100    0.0100    0.0100    0.0100
    0.0100    0.0100    0.0100    0.0100    0.0100    0.0100    0.0100    0.0100
    0.0100    0.0100    0.0100    0.0100    0.0100    0.0100    0.0100    0.0100
    0.0100    0.0100    0.0100    0.0100    0.0100    0.0100    0.0100    0.0100
    0.0100    0.0100    0.0100    0.0100    0.0100    0.0100    0.0100    0.0100
    0.0100    0.0100    0.0100    0.0100    0.0100    0.0100    0.0100    0.0100
    0.0100    0.0100    0.0100    0.0100    0.0100    0.0100    0.0100    0.0100
    0.0100    0.0100    0.0100    0.0100    0.0100    0.0100    0.0100    0.0100
    0.0100    0.0100    0.0100    0.0100    0.0100    0.0100    0.0100    0.0100
    0.0100    0.0100    0.0100    0.0100    0.0100    0.0100    0.0100    0.0100
    0.0100    0.0100    0.0100    0.0100    0.0100    0.0100    0.0100    0.0100
    0.0100    0.0100    0.0100    0.0100    0.0100    0.0100    0.0100    0.0100
    0.0100    0.0100    0.0100    0.0100    0.0100    0.0100    0.0100    0.0100
    0.0100    0.0100    0.0100    0.0100    0.0100    0.0100    0.0100    0.0100
    0.0100    0.0100    0.0100    0.0100    0.0100    0.0100    0.0100    0.0100
    0.0100    0.0100    0.0100    0.0100    0.0100    0.0100    0.0100    0.0100
    0.0100    0.0100    0.0100    0.0100    0.0100    0.0100    0.0100    0.0100
    0.0100    0.0100    0.0100    0.0100    0.0100    0.0100    0.0100    0.0100
    0.0100    0.0100    0.0100    0.0100    0.0100    0.0100    0.0100    0.0100
    0.0100    0.0100
   </PP_RAB>
 </PP_MESH>
  <PP_LOCAL type="real"  size=" 602" columns="4">
   -2.1361767073E+01   -2.1747334010E+01   -2.1878588020E+01   -2.1878662240E+01
   -2.1870689810E+01   -2.1857681119E+01   -2.1839885283E+01   -2.1817987488E+01
   -2.1792808102E+01   -2.1765048190E+01   -2.1735237205E+01   -2.1703765373E+01
   -2.1670928737E+01   -2.1636965259E+01   -2.1602080103E+01   -2.1566462806E+01
   -2.1530299071E+01   -2.1493779075E+01   -2.1457103459E+01   -2.1420487667E+01
   -2.1384164941E+01   -2.1348388109E+01   -2.1313430128E+01   -2.1279583278E+01
   -2.1247156836E+01   -2.1216473045E+01   -2.1187861202E+01   -2.1161649706E+01
   -2.1138156036E+01   -2.1117674679E+01   -2.1100463229E+01   -2.1086727039E+01
   -2.1076603038E+01   -2.1070143720E+01   -2.1067301612E+01   -2.1067916784E+01
   -2.1071706783E+01   -2.1078262549E+01   -2.1087048537E+01   -2.1097410821E+01
   -2.1108591511E+01   -2.1119750045E+01   -2.1129990689E+01   -2.1138394947E+01
   -2.1144057133E+01   -2.1146121024E+01   -2.1143815302E+01   -2.1136485527E+01
   -2.1123620534E+01   -2.1104870878E+01   -2.1080061558E+01   -2.1049193070E+01
   -2.1012433227E+01   -2.0970104659E+01   -2.0922661677E+01   -2.0870662104E+01
   -2.0814739438E+01   -2.0755568813E+01   -2.0693838043E+01   -2.0630220201E+01
   -2.0565349021E+01   -2.0499803069E+01   -2.0434092792E+01   -2.0368652921E+01
   -2.0303843953E+01   -2.0239951794E+01   -2.0177194207E+01   -2.0115729416E+01
   -2.0055664211E+01   -1.9997060872E+01   -1.9939947580E+01   -1.9884325064E+01
   -1.9830173039E+01   -1.9777455363E+01   -1.9726124228E+01   -1.9676123660E+01
   -1.9627391728E+01   -1.9579862165E+01   -1.9533465413E+01   -1.9488129201E+01
   -1.9443778788E+01   -1.9400336965E+01   -1.9357723912E+01   -1.9315856979E+01
   -1.9274650469E+01   -1.9234015459E+01   -1.9193859730E+01   -1.9154087813E+01
   -1.9114601210E+01   -1.9075298785E+01   -1.9036077348E+01   -1.8996832428E+01
   -1.8957459221E+01   -1.8917853696E+01   -1.8877913820E+01   -1.8837540872E+01
   -1.8796640782E+01   -1.8755125450E+01   -1.8712913726E+01   -1.8669933146E+01
   -1.8626120732E+01   -1.8581423531E+01   -1.8535799236E+01   -1.8489216452E+01
   -1.8441654243E+01   -1.8393103092E+01   -1.8343564004E+01   -1.8293047224E+01
   -1.8241571691E+01   -1.8189163649E+01   -1.8135857171E+01   -1.8081691561E+01
   -1.8026710377E+01   -1.7970960455E+01   -1.7914491436E+01   -1.7857354134E+01
   -1.7799599718E+01   -1.7741279406E+01   -1.7682443280E+01   -1.7623139866E+01
   -1.7563416133E+01   -1.7503316886E+01   -1.7442883910E+01   -1.7382156894E+01
   -1.7321173333E+01   -1.7259966901E+01   -1.7198569363E+01   -1.7137010525E+01
   -1.7075316406E+01   -1.7013511604E+01   -1.6951618907E+01   -1.6889657995E+01
   -1.6827647627E+01   -1.6765604753E+01   -1.6703544224E+01   -1.6641480328E+01
   -1.6579425483E+01   -1.6517391057E+01   -1.6455387980E+01   -1.6393425379E+01
   -1.6331512272E+01   -1.6269656689E+01   -1.6207865862E+01   -1.6146146929E+01
   -1.6084505836E+01   -1.6022948586E+01   -1.5961480456E+01   -1.5900106366E+01
   -1.5838831025E+01   -1.5777658459E+01   -1.5716592810E+01   -1.5655637440E+01
   -1.5594795802E+01   -1.5534070815E+01   -1.5473465255E+01   -1.5412981626E+01
   -1.5352622089E+01   -1.5292388749E+01   -1.5232283211E+01   -1.5172307195E+01
   -1.5112461810E+01   -1.5052748403E+01   -1.4993167670E+01   -1.4933720556E+01
   -1.4874407455E+01   -1.4815228945E+01   -1.4756185169E+01   -1.4697276402E+01
   -1.4638502590E+01   -1.4579863781E+01   -1.4521359793E+01   -1.4462990516E+01
   -1.4404755723E+01   -1.4346655215E+01   -1.4288688809E+01   -1.4230856281E+01
   -1.4173157589E+01   -1.4115592544E+01   -1.4058161317E+01   -1.4000863861E+01
   -1.3943700579E+01   -1.3886671672E+01   -1.3829777787E+01   -1.3773019478E+01
   -1.3716397618E+01   -1.3659913212E+01   -1.3603567338E+01   -1.3547361512E+01
   -1.3491296999E+01   -1.3435375823E+01   -1.3379599518E+01   -1.3323970448E+01
   -1.3268490626E+01   -1.3213162532E+01   -1.3157988702E+01   -1.3102971701E+01
   -1.3048114514E+01   -1.2993419807E+01   -1.2938890829E+01   -1.2884530553E+01
   -1.2830342218E+01   -1.2776329092E+01   -1.2722494417E+01   -1.2668841600E+01
   -1.2615373964E+01   -1.2562094904E+01   -1.2509007815E+01   -1.2456116066E+01
   -1.2403422995E+01   -1.2350932017E+01   -1.2298646351E+01   -1.2246569326E+01
   -1.2194704173E+01   -1.2143054010E+01   -1.2091622120E+01   -1.2040411455E+01
   -1.1989425116E+01   -1.1938666125E+01   -1.1888137325E+01   -1.1837841742E+01
   -1.1787782119E+01   -1.1737961256E+01   -1.1688381999E+01   -1.1639046931E+01
   -1.1589958804E+01   -1.1541120227E+01   -1.1492533714E+01   -1.1444201941E+01
   -1.1396127299E+01   -1.1348312254E+01   -1.1300759340E+01   -1.1253470787E+01
   -1.1206449010E+01   -1.1159696324E+01   -1.1113214830E+01   -1.1067006868E+01
   -1.1021074478E+01   -1.0975419609E+01   -1.0930044509E+01   -1.0884950869E+01
   -1.0840140454E+01   -1.0795615390E+01   -1.0751376940E+01   -1.0707426689E+01
   -1.0663766479E+01   -1.0620397193E+01   -1.0577320162E+01   -1.0534536865E+01
   -1.0492047787E+01   -1.0449853939E+01   -1.0407956402E+01   -1.0366355217E+01
   -1.0325051017E+01   -1.0284044475E+01   -1.0243335154E+01   -1.0202923240E+01
   -1.0162809025E+01   -1.0122991553E+01   -1.0083470513E+01   -1.0044245849E+01
   -1.0005316068E+01   -9.9666803091E+00   -9.9283382265E+00   -9.8902877747E+00
   -9.8525275600E+00   -9.8150568557E+00   -9.7778732121E+00   -9.7409747202E+00
   -9.7043600720E+00   -9.6680266817E+00   -9.6319720638E+00   -9.5961942939E+00
   -9.5606907480E+00   -9.5254584046E+00   -9.4904946627E+00   -9.4557968622E+00
   -9.4213618270E+00   -9.3871866263E+00   -9.3532683511E+00   -9.3196040300E+00
   -9.2861907161E+00   -9.2530254167E+00   -9.2201052362E+00   -9.1874272827E+00
   -9.1549885981E+00   -9.1227862568E+00   -9.0908175043E+00   -9.0590795007E+00
   -9.0275692295E+00   -8.9962841123E+00   -8.9652214238E+00   -8.9343782998E+00
   -8.9037520673E+00   -8.8733402466E+00   -8.8431402269E+00   -8.8131491271E+00
   -8.7833647693E+00   -8.7537846971E+00   -8.7244062902E+00   -8.6952271608E+00
   -8.6662451877E+00   -8.6374580778E+00   -8.6088632256E+00   -8.5804587720E+00
   -8.5522426235E+00   -8.5242125446E+00   -8.4963663235E+00   -8.4687022509E+00
   -8.4412183702E+00   -8.4139124979E+00   -8.3867828791E+00   -8.3598278444E+00
   -8.3330455973E+00   -8.3064340370E+00   -8.2799917920E+00   -8.2537172330E+00
   -8.2276086533E+00   -8.2016642637E+00   -8.1758827651E+00   -8.1502626343E+00
   -8.1248022701E+00   -8.0995001493E+00   -8.0743549373E+00   -8.0493651900E+00
   -8.0245293904E+00   -7.9998461427E+00   -7.9753141088E+00   -7.9509318965E+00
   -7.9266980020E+00   -7.9026111395E+00   -7.8786700323E+00   -7.8548733537E+00
   -7.8312196425E+00   -7.8077077170E+00   -7.7843363621E+00   -7.7611043209E+00
   -7.7380102016E+00   -7.7150528971E+00   -7.6922312531E+00   -7.6695440787E+00
   -7.6469900747E+00   -7.6245681658E+00   -7.6022772477E+00   -7.5801161831E+00
   -7.5580837344E+00   -7.5361788565E+00   -7.5144005079E+00   -7.4927476038E+00
   -7.4712189805E+00   -7.4498136018E+00   -7.4285304878E+00   -7.4073686017E+00
   -7.3863268525E+00   -7.3654041990E+00   -7.3445997259E+00   -7.3239124413E+00
   -7.3033413288E+00   -7.2828853288E+00   -7.2625435930E+00   -7.2423151727E+00
   -7.2221991192E+00   -7.2021943686E+00   -7.1823001159E+00   -7.1625154648E+00
   -7.1428395092E+00   -7.1232712623E+00   -7.1038098700E+00   -7.0844545230E+00
   -7.0652043582E+00   -7.0460584821E+00   -7.0270159713E+00   -7.0080761041E+00
   -6.9892380588E+00   -6.9705010140E+00   -6.9518640511E+00   -6.9333264510E+00
   -6.9148874540E+00   -6.8965462763E+00   -6.8783020940E+00   -6.8601540933E+00
   -6.8421016081E+00   -6.8241438910E+00   -6.8062801946E+00   -6.7885096790E+00
   -6.7708316915E+00   -6.7532455443E+00   -6.7357505248E+00   -6.7183458958E+00
   -6.7010308853E+00   -6.6838049037E+00   -6.6666672715E+00   -6.6496173091E+00
   -6.6326542730E+00   -6.6157775154E+00   -6.5989864377E+00   -6.5822803919E+00
   -6.5656587300E+00   -6.5491207097E+00   -6.5326657881E+00   -6.5162933620E+00
   -6.5000028134E+00   -6.4837935120E+00   -6.4676647617E+00   -6.4516160667E+00
   -6.4356468377E+00   -6.4197564856E+00   -6.4039443887E+00   -6.3882099254E+00
   -6.3725526064E+00   -6.3569718700E+00   -6.3414671542E+00   -6.3260378522E+00
   -6.3106834001E+00   -6.2954033201E+00   -6.2801970766E+00   -6.2650641339E+00
   -6.2500039048E+00   -6.2350158677E+00   -6.2200995612E+00   -6.2052544746E+00
   -6.1904800970E+00   -6.1757758660E+00   -6.1611412874E+00   -6.1465759211E+00
   -6.1320792800E+00   -6.1176508771E+00   -6.1032901791E+00   -6.0889967054E+00
   -6.0747700415E+00   -6.0606097233E+00   -6.0465152862E+00   -6.0324862307E+00
   -6.0185220764E+00   -6.0046224392E+00   -5.9907868762E+00   -5.9770149447E+00
   -5.9633061831E+00   -5.9496600990E+00   -5.9360763423E+00   -5.9225544909E+00
   -5.9090941225E+00   -5.8956948150E+00   -5.8823560605E+00   -5.8690775389E+00
   -5.8558588499E+00   -5.8426995909E+00   -5.8295993593E+00   -5.8165576933E+00
   -5.8035742339E+00   -5.7906486254E+00   -5.7777804841E+00   -5.7649694261E+00
   -5.7522150394E+00   -5.7395169165E+00   -5.7268747489E+00   -5.7142881704E+00
   -5.7017568151E+00   -5.6892803172E+00   -5.6768582361E+00   -5.6644902875E+00
   -5.6521761305E+00   -5.6399154162E+00   -5.6277077956E+00   -5.6155528853E+00
   -5.6034503303E+00   -5.5913998450E+00   -5.5794010968E+00   -5.5674537530E+00
   -5.5555574810E+00   -5.5437118796E+00   -5.5319166873E+00   -5.5201715974E+00
   -5.5084762927E+00   -5.4968304561E+00   -5.4852337506E+00   -5.4736858246E+00
   -5.4621864332E+00   -5.4507352743E+00   -5.4393320452E+00   -5.4279764437E+00
   -5.4166681242E+00   -5.4054068020E+00   -5.3941922220E+00   -5.3830240958E+00
   -5.3719021351E+00   -5.3608260516E+00   -5.3497954970E+00   -5.3388102397E+00
   -5.3278700187E+00   -5.3169745591E+00   -5.3061235861E+00   -5.2953168248E+00
   -5.2845539296E+00   -5.2738347081E+00   -5.2631588989E+00   -5.2525262398E+00
   -5.2419364689E+00   -5.2313893169E+00   -5.2208844669E+00   -5.2104217321E+00
   -5.2000008623E+00   -5.1896216079E+00   -5.1792837190E+00   -5.1689869360E+00
   -5.1587309612E+00   -5.1485156152E+00   -5.1383406598E+00   -5.1282058568E+00
   -5.1181109679E+00   -5.1080557479E+00   -5.0980399068E+00   -5.0880632772E+00
   -5.0781256319E+00   -5.0682267438E+00   -5.0583663858E+00   -5.0485443307E+00
   -5.0387602869E+00   -5.0290141017E+00   -5.0193055591E+00   -5.0096344423E+00
   -5.0000005350E+00   -4.9904036205E+00   -4.9808434301E+00   -4.9713197956E+00
   -4.9618325223E+00   -4.9523814039E+00   -4.9429662339E+00   -4.9335868058E+00
   -4.9242428779E+00   -4.9149342565E+00   -4.9056607725E+00   -4.8964222290E+00
   -4.8872184293E+00   -4.8780491765E+00   -4.8689142594E+00   -4.8598134506E+00
   -4.8507466093E+00   -4.8417135478E+00   -4.8327140785E+00   -4.8237480137E+00
   -4.8148151657E+00   -4.8059152976E+00   -4.7970482676E+00   -4.7882139072E+00
   -4.7794120376E+00   -4.7706424797E+00   -4.7619050547E+00   -4.7531995634E+00
   -4.7445258115E+00   -4.7358836667E+00   -4.7272729585E+00   -4.7186935163E+00
   -4.7101451695E+00   -4.7016277475E+00   -4.6931410350E+00   -4.6846848999E+00
   -4.6762591918E+00   -4.6678637482E+00   -4.6594984064E+00   -4.6511630038E+00
   -4.6428573695E+00   -4.6345813029E+00   -4.6263346960E+00   -4.6181173938E+00
   -4.6099292414E+00   -4.6017700835E+00   -4.5936397653E+00   -4.5855381081E+00
   -4.5774649521E+00   -4.5694201806E+00   -4.5614036459E+00   -4.5534152001E+00
   -4.5454546954E+00   -4.5375219839E+00   -4.5296168842E+00   -4.5217392665E+00
   -4.5138890096E+00   -4.5060659726E+00   -4.4982700145E+00   -4.4905009944E+00
   -4.4827587713E+00   -4.4750431655E+00   -4.4673540665E+00   -4.4596913530E+00
   -4.4520548907E+00   -4.4444445452E+00   -4.4368601821E+00   -4.4293016671E+00
   -4.4217688260E+00   -4.4142615580E+00   -4.4067797459E+00   -4.3993232617E+00
   -4.3918919772E+00   -4.3844857643E+00   -4.3771044950E+00   -4.3697480044E+00
   -4.3624161924E+00   -4.3551089498E+00   -4.3478261544E+00   -4.3405676842E+00
   -4.3333334169E+00   -4.3261232305E+00
  </PP_LOCAL>
 <PP_NONLOCAL>
   <PP_BETA.1
       type="real"
       size=" 602"
       columns="4"
       index="1"
       angular_momentum="0"
       cutoff_radius_index=" 368"
       cutoff_radius="    3.6700000000E+00" >
    0.0000000000E+00   -3.0281867008E-02   -6.0498033674E-02   -9.0582949204E-02
   -1.2047136156E-01   -1.5009846598E-01   -1.7940005254E-01   -2.0831265227E-01
   -2.3677368173E-01   -2.6472158545E-01   -2.9209597616E-01   -3.1883777231E-01
   -3.4488933266E-01   -3.7019458761E-01   -3.9469916701E-01   -4.1835052408E-01
   -4.4109805528E-01   -4.6289321566E-01   -4.8368962970E-01   -5.0344319720E-01
   -5.2211219399E-01   -5.3965736727E-01   -5.5604202541E-01   -5.7123212198E-01
   -5.8519633373E-01   -5.9790613225E-01   -6.0933584999E-01   -6.1946273883E-01
   -6.2826702272E-01   -6.3573194348E-01   -6.4184379969E-01   -6.4659197874E-01
   -6.4996898186E-01   -6.5197044165E-01   -6.5259513401E-01   -6.5184498073E-01
   -6.4972504728E-01   -6.4624353127E-01   -6.4141174605E-01   -6.3524409540E-01
   -6.2775804221E-01   -6.1897407006E-01   -6.0891563793E-01   -5.9760912818E-01
   -5.8508378793E-01   -5.7137166392E-01   -5.5650753109E-01   -5.4052881486E-01
   -5.2347550760E-01   -5.0539008140E-01   -4.8631738870E-01   -4.6630456339E-01
   -4.4540092097E-01   -4.2365783996E-01   -4.0112864757E-01   -3.7786851518E-01
   -3.5393430217E-01   -3.2938447699E-01   -3.0427892530E-01   -2.7867888366E-01