 written on 15Apr2021 at 15:20:43 
           4
          93
    4    6    2    2    2    1    2    2    1    1    2    6    2    2    2
    6    2    2    4    1    1    1    4    1    1    1    1    2    1    1
    1    2    2    1    1    2    4    2    1    2    1    1    1    1    2
    1    1    1    2    1    1    1    1    2    1    2    4    2    1    1
    2    2    1    1    1    2    1    1    1    1    4    1    1    1    4
    2    2    6    2    2    2    6    2    1    1    2    2    1    2    2
    2    6    4
   -3    1    1    1    1    0.005486   -0.000000
   -3    1    1    2    1   -0.001435   -0.000000
   -3    1    1    3    1   -0.001435    0.000000
   -3    1    1    4    1   -0.001435   -0.000000
   -3    1    1    1    2   -0.001435   -0.000000
   -3    1    1    2    2    0.005486   -0.000000
   -3    1    1    3    2   -0.001435    0.000000
   -3    1    1    4    2   -0.001435   -0.000000
   -3    1    1    1    3   -0.001435   -0.000000
   -3    1    1    2    3   -0.001435    0.000000
   -3    1    1    3    3    0.005486    0.000000
   -3    1    1    4    3   -0.001435    0.000000
   -3    1    1    1    4   -0.001435    0.000000
   -3    1    1    2    4   -0.001435    0.000000
   -3    1    1    3    4   -0.001435    0.000000
   -3    1    1    4    4    0.005486   -0.000000
   -2   -2    2    1    1    0.003167   -0.000000
   -2   -2    2    2    1   -0.000986   -0.000000
   -2   -2    2    3    1   -0.000986   -0.000000
   -2   -2    2    4    1   -0.000986   -0.000000
   -2   -2    2    1    2   -0.000986    0.000000
   -2   -2    2    2    2    0.003167   -0.000000
   -2   -2    2    3    2   -0.000986   -0.000000
   -2   -2    2    4    2   -0.000986    0.000000
   -2   -2    2    1    3   -0.000986    0.000000
   -2   -2    2    2    3   -0.000986    0.000000
   -2   -2    2    3    3    0.003167    0.000000
   -2   -2    2    4    3   -0.000986    0.000000
   -2   -2    2    1    4   -0.000986    0.000000
   -2   -2    2    2    4   -0.000986   -0.000000
   -2   -2    2    3    4   -0.000986   -0.000000
   -2   -2    2    4    4    0.003167    0.000000
   -2   -1    1    1    1    0.001914    0.000000
   -2   -1    1    2    1    0.000868   -0.000000
   -2   -1    1    3    1   -0.001876    0.000000
   -2   -1    1    4    1    0.000868    0.000000
   -2   -1    1    1    2   -0.000852   -0.000000
   -2   -1    1    2    2   -0.001772    0.000000
   -2   -1    1    3    2    0.000868   -0.000000
   -2   -1    1    4    2    0.003611    0.000000
   -2   -1    1    1    3   -0.000986    0.000000
   -2   -1    1    2    3   -0.000852    0.000000
   -2   -1    1    3    3    0.001914    0.000000
   -2   -1    1    4    3   -0.000852    0.000000
   -2   -1    1    1    4   -0.000852   -0.000000
   -2   -1    1    2    4    0.003611   -0.000000
   -2   -1    1    3    4    0.000868    0.000000
   -2   -1    1    4    4   -0.001772   -0.000000
   -2   -1    2    1    1    0.001914    0.000000
   -2   -1    2    2    1   -0.001876   -0.000000
   -2   -1    2    3    1    0.000868   -0.000000
   -2   -1    2    4    1    0.000868    0.000000
   -2   -1    2    1    2   -0.000986    0.000000
   -2   -1    2    2    2    0.001914   -0.000000
   -2   -1    2    3    2   -0.000852    0.000000
   -2   -1    2    4    2   -0.000852   -0.000000
   -2   -1    2    1    3   -0.000852    0.000000
   -2   -1    2    2    3    0.000868    0.000000
   -2   -1    2    3    3   -0.001772    0.000000
   -2   -1    2    4    3    0.003611    0.000000
   -2   -1    2    1    4   -0.000852   -0.000000
   -2   -1    2    2    4    0.000868   -0.000000
   -2   -1    2    3    4    0.003611    0.000000
   -2   -1    2    4    4   -0.001772   -0.000000
   -2    0    0    1    1   -0.001749    0.000000
   -2    0    0    2    1    0.001978    0.000000
   -2    0    0    3    1   -0.001876   -0.000000
   -2    0    0    4    1    0.001978    0.000000
   -2    0    0    1    2    0.001978   -0.000000
   -2    0    0    2    2    0.098496    0.000000
   -2    0    0    3    2    0.001978   -0.000000
   -2    0    0    4    2   -0.144420    0.000000
   -2    0    0    1    3   -0.001876    0.000000
   -2    0    0    2    3    0.001978    0.000000
   -2    0    0    3    3   -0.001749    0.000000
   -2    0    0    4    3    0.001978    0.000000
   -2    0    0    1    4    0.001978   -0.000000
   -2    0    0    2    4   -0.144420   -0.000000
   -2    0    0    3    4    0.001978   -0.000000
   -2    0    0    4    4    0.098496    0.000000
   -2    0    1    1    1    0.003620   -0.000000
   -2    0    1    2    1   -0.001899   -0.000000
   -2    0    1    3    1   -0.001899    0.000000
   -2    0    1    4    1   -0.001435   -0.000000
   -2    0    1    1    2    0.000868    0.000000
   -2    0    1    2    2   -0.007257    0.000000
   -2    0    1    3    2    0.001978    0.000000
   -2    0    1    4    2    0.000274   -0.000000
   -2    0    1    1    3    0.000868    0.000000
   -2    0    1    2    3    0.001978    0.000000
   -2    0    1    3    3   -0.007257    0.000000
   -2    0    1    4    3    0.000274    0.000000
   -2    0    1    1    4   -0.012774   -0.000000
   -2    0    1    2    4    0.013114   -0.000000
   -2    0    1    3    4    0.013114   -0.000000
   -2    0    1    4    4    0.006011   -0.000000
   -2    0    2    1    1   -0.001749    0.000000
   -2    0    2    2    1   -0.001876    0.000000
   -2    0    2    3    1    0.001978   -0.000000
   -2    0    2    4    1    0.001978   -0.000000
   -2    0    2    1    2   -0.001876   -0.000000
   -2    0    2    2    2   -0.001749    0.000000
   -2    0    2    3    2    0.001978   -0.000000
   -2    0    2    4    2    0.001978    0.000000
   -2    0    2    1    3    0.001978    0.000000
   -2    0    2    2    3    0.001978    0.000000
   -2    0    2    3    3    0.098496    0.000000
   -2    0    2    4    3   -0.144420   -0.000000
   -2    0    2    1    4    0.001978    0.000000
   -2    0    2    2    4    0.001978   -0.000000
   -2    0    2    3    4   -0.144420    0.000000
   -2    0    2    4    4    0.098496   -0.000000
   -2    1   -1    1    1    0.001914   -0.000000
   -2    1   -1    2    1   -0.000852    0.000000
   -2    1   -1    3    1   -0.000986   -0.000000
   -2    1   -1    4    1   -0.000852    0.000000
   -2    1   -1    1    2    0.000868    0.000000
   -2    1   -1    2    2   -0.001772   -0.000000
   -2    1   -1    3    2   -0.000852   -0.000000
   -2    1   -1    4    2    0.003611    0.000000
   -2    1   -1    1    3   -0.001876   -0.000000
   -2    1   -1    2    3    0.000868    0.000000
   -2    1   -1    3    3    0.001914   -0.000000
   -2    1   -1    4    3    0.000868   -0.000000
   -2    1   -1    1    4    0.000868   -0.000000
   -2    1   -1    2    4    0.003611   -0.000000
   -2    1   -1    3    4   -0.000852   -0.000000
   -2    1   -1    4    4   -0.001772    0.000000
   -2    1    0    1    1   -0.007257    0.000000
   -2    1    0    2    1    0.001978   -0.000000
   -2    1    0    3    1    0.000868   -0.000000
   -2    1    0    4    1    0.000274   -0.000000
   -2    1    0    1    2    0.001978   -0.000000
   -2    1    0    2    2   -0.007257    0.000000
   -2    1    0    3    2    0.000868   -0.000000
   -2    1    0    4    2    0.000274   -0.000000
   -2    1    0    1    3   -0.001899    0.000000
   -2    1    0    2    3   -0.001899    0.000000
   -2    1    0    3    3    0.003620   -0.000000
   -2    1    0    4    3   -0.001435    0.000000
   -2    1    0    1    4    0.013114    0.000000
   -2    1    0    2    4    0.013114    0.000000
   -2    1    0    3    4   -0.012774   -0.000000
   -2    1    0    4    4    0.006011   -0.000000
   -2    1    1    1    1   -0.007257    0.000000
   -2    1    1    2    1    0.000868    0.000000
   -2    1    1    3    1    0.001978   -0.000000
   -2    1    1    4    1    0.000274   -0.000000
   -2    1    1    1    2   -0.001899    0.000000
   -2    1    1    2    2    0.003620    0.000000
   -2    1    1    3    2   -0.001899   -0.000000
   -2    1    1    4    2   -0.001435   -0.000000
   -2    1    1    1    3    0.001978   -0.000000
   -2    1    1    2    3    0.000868   -0.000000
   -2    1    1    3    3   -0.007257   -0.000000
   -2    1    1    4    3    0.000274   -0.000000
   -2    1    1    1    4    0.013114   -0.000000
   -2    1    1    2    4   -0.012774    0.000000
   -2    1    1    3    4    0.013114   -0.000000
   -2    1    1    4    4    0.006011   -0.000000
   -2    1    2    1    1    0.001914   -0.000000
   -2    1    2    2    1   -0.000986   -0.000000
   -2    1    2    3    1   -0.000852   -0.000000
   -2    1    2    4    1   -0.000852    0.000000
   -2    1    2    1    2   -0.001876    0.000000
   -2    1    2    2    2    0.001914    0.000000
   -2    1    2    3    2    0.000868   -0.000000
   -2    1    2    4    2    0.000868    0.000000
   -2    1    2    1    3    0.000868    0.000000
   -2    1    2    2    3   -0.000852   -0.000000
   -2    1    2    3    3   -0.001772   -0.000000
   -2    1    2    4    3    0.003611   -0.000000
   -2    1    2    1    4    0.000868   -0.000000
   -2    1    2    2    4   -0.000852    0.000000
   -2    1    2    3    4    0.003611   -0.000000
   -2    1    2    4    4   -0.001772    0.000000
   -2    2   -2    1    1    0.003167    0.000000
   -2    2   -2    2    1   -0.000986   -0.000000
   -2    2   -2    3    1   -0.000986   -0.000000
   -2    2   -2    4    1   -0.000986   -0.000000
   -2    2   -2    1    2   -0.000986    0.000000
   -2    2   -2    2    2    0.003167   -0.000000
   -2    2   -2    3    2   -0.000986   -0.000000
   -2    2   -2    4    2   -0.000986    0.000000
   -2    2   -2    1    3   -0.000986    0.000000
   -2    2   -2    2    3   -0.000986    0.000000
   -2    2   -2    3    3    0.003167    0.000000
   -2    2   -2    4    3   -0.000986    0.000000
   -2    2   -2    1    4   -0.000986    0.000000
   -2    2   -2    2    4   -0.000986   -0.000000
   -2    2   -2    3    4   -0.000986   -0.000000
   -2    2   -2    4    4    0.003167    0.000000
   -2    2   -1    1    1   -0.001772    0.000000
   -2    2   -1    2    1    0.000868   -0.000000
   -2    2   -1    3    1   -0.000852   -0.000000
   -2    2   -1    4    1    0.003611    0.000000
   -2    2   -1    1    2   -0.000852   -0.000000
   -2    2   -1    2    2    0.001914   -0.000000
   -2    2   -1    3    2   -0.000986   -0.000000
   -2    2   -1    4    2   -0.000852    0.000000
   -2    2   -1    1    3    0.000868    0.000000
   -2    2   -1    2    3   -0.001876    0.000000
   -2    2   -1    3    3    0.001914   -0.000000
   -2    2   -1    4    3    0.000868    0.000000
   -2    2   -1    1    4    0.003611    0.000000
   -2    2   -1    2    4    0.000868   -0.000000
   -2    2   -1    3    4   -0.000852   -0.000000
   -2    2   -1    4    4   -0.001772    0.000000
   -2    2    0    1    1    0.098496   -0.000000
   -2    2    0    2    1    0.001978   -0.000000
   -2    2    0    3    1    0.001978   -0.000000
   -2    2    0    4    1   -0.144420   -0.000000
   -2    2    0    1    2    0.001978    0.000000
   -2    2    0    2    2   -0.001749   -0.000000
   -2    2    0    3    2   -0.001876   -0.000000
   -2    2    0    4    2    0.001978   -0.000000
   -2    2    0    1    3    0.001978    0.000000
   -2    2    0    2    3   -0.001876    0.000000
   -2    2    0    3    3   -0.001749   -0.000000
   -2    2    0    4    3    0.001978    0.000000
   -2    2    0    1    4   -0.144420    0.000000
   -2    2    0    2    4    0.001978    0.000000
   -2    2    0    3    4    0.001978   -0.000000
   -2    2    0    4    4    0.098496   -0.000000
   -2    2    1    1    1   -0.001772   -0.000000
   -2    2    1    2    1   -0.000852    0.000000
   -2    2    1    3    1    0.000868   -0.000000
   -2    2    1    4    1    0.003611   -0.000000
   -2    2    1    1    2    0.000868    0.000000
   -2    2    1    2    2    0.001914    0.000000
   -2    2    1    3    2   -0.001876   -0.000000
   -2    2    1    4    2    0.000868    0.000000
   -2    2    1    1    3   -0.000852    0.000000
   -2    2    1    2    3   -0.000986    0.000000
   -2    2    1    3    3    0.001914    0.000000
   -2    2    1    4    3   -0.000852    0.000000
   -2    2    1    1    4    0.003611   -0.000000
   -2    2    1    2    4   -0.000852   -0.000000
   -2    2    1    3    4    0.000868   -0.000000
   -2    2    1    4    4   -0.001772   -0.000000
   -2    2    2    1    1    0.003167   -0.000000
   -2    2    2    2    1   -0.000986   -0.000000
   -2    2    2    3    1   -0.000986   -0.000000
   -2    2    2    4    1   -0.000986   -0.000000
   -2    2    2    1    2   -0.000986    0.000000
   -2    2    2    2    2    0.003167   -0.000000
   -2    2    2    3    2   -0.000986   -0.000000
   -2    2    2    4    2   -0.000986    0.000000
   -2    2    2    1    3   -0.000986    0.000000
   -2    2    2    2    3   -0.000986    0.000000
   -2    2    2    3    3    0.003167    0.000000
   -2    2    2    4    3   -0.000986    0.000000
   -2    2    2    1    4   -0.000986    0.000000
   -2    2    2    2    4   -0.000986   -0.000000
   -2    2    2    3    4   -0.000986   -0.000000
   -2    2    2    4    4    0.003167   -0.000000
   -1   -2    1    1    1   -0.001772    0.000000
   -1   -2    1    2    1    0.003611    0.000000
   -1   -2    1    3    1    0.000868    0.000000
   -1   -2    1    4    1   -0.000852    0.000000
   -1   -2    1    1    2    0.003611   -0.000000
   -1   -2    1    2    2   -0.001772   -0.000000
   -1   -2    1    3    2    0.000868    0.000000
   -1   -2    1    4    2   -0.000852    0.000000
   -1   -2    1    1    3   -0.000852   -0.000000
   -1   -2    1    2    3   -0.000852    0.000000
   -1   -2    1    3    3    0.001914   -0.000000
   -1   -2    1    4    3   -0.000986    0.000000
   -1   -2    1    1    4    0.000868   -0.000000
   -1   -2    1    2    4    0.000868    0.000000
   -1   -2    1    3    4   -0.001876   -0.000000
   -1   -2    1    4    4    0.001914    0.000000
   -1   -2    2    1    1   -0.001772   -0.000000
   -1   -2    2    2    1    0.000868   -0.000000
   -1   -2    2    3    1    0.003611    0.000000
   -1   -2    2    4    1   -0.000852    0.000000
   -1   -2    2    1    2   -0.000852    0.000000
   -1   -2    2    2    2    0.001914    0.000000
   -1   -2    2    3    2   -0.000852   -0.000000
   -1   -2    2    4    2   -0.000986    0.000000
   -1   -2    2    1    3    0.003611    0.000000
   -1   -2    2    2    3    0.000868    0.000000
   -1   -2    2    3    3   -0.001772    0.000000
   -1   -2    2    4    3   -0.000852    0.000000
   -1   -2    2    1    4    0.000868    0.000000
   -1   -2    2    2    4   -0.001876   -0.000000
   -1   -2    2    3    4    0.000868   -0.000000
   -1   -2    2    4    4    0.001914    0.000000
   -1   -1   -1    1    1    0.005486    0.000000
   -1   -1   -1    2    1   -0.001435    0.000000
   -1   -1   -1    3    1   -0.001435    0.000000
   -1   -1   -1    4    1   -0.001435   -0.000000
   -1   -1   -1    1    2   -0.001435    0.000000
   -1   -1   -1    2    2    0.005486    0.000000
   -1   -1   -1    3    2   -0.001435   -0.000000
   -1   -1   -1    4    2   -0.001435   -0.000000
   -1   -1   -1    1    3   -0.001435   -0.000000
   -1   -1   -1    2    3   -0.001435   -0.000000
   -1   -1   -1    3    3    0.005486   -0.000000
   -1   -1   -1    4    3   -0.001435   -0.000000
   -1   -1   -1    1    4   -0.001435    0.000000
   -1   -1   -1    2    4   -0.001435    0.000000
   -1   -1   -1    3    4   -0.001435   -0.000000
   -1   -1   -1    4    4    0.005486    0.000000
   -1   -1    0    1    1   -0.007257   -0.000000
   -1   -1    0    2    1    0.013114   -0.000000
   -1   -1    0    3    1   -0.001899    0.000000
   -1   -1    0    4    1    0.001978    0.000000
   -1   -1    0    1    2    0.000274    0.000000
   -1   -1    0    2    2    0.006011   -0.000000
   -1   -1    0    3    2   -0.001435    0.000000
   -1   -1    0    4    2    0.000274    0.000000
   -1   -1    0    1    3    0.000868   -0.000000
   -1   -1    0    2    3   -0.012774    0.000000
   -1   -1    0    3    3    0.003620    0.000000
   -1   -1    0    4    3    0.000868   -0.000000
   -1   -1    0    1    4    0.001978   -0.000000
   -1   -1    0    2    4    0.013114    0.000000
   -1   -1    0    3    4   -0.001899   -0.000000
   -1   -1    0    4    4   -0.007257    0.000000
   -1   -1    1    1    1   -0.001809   -0.000000
   -1   -1    1    2    1    0.019924    0.000000
   -1   -1    1    3    1    0.019924   -0.000000
   -1   -1    1    4    1   -0.012774    0.000000
   -1   -1    1    1    2    0.003611   -0.000000
   -1   -1    1    2    2   -0.001809   -0.000000
   -1   -1    1    3    2   -0.012774    0.000000
   -1   -1    1    4    2    0.003611    0.000000
   -1   -1    1    1    3    0.003611    0.000000
   -1   -1    1    2    3   -0.012774    0.000000
   -1   -1    1    3    3   -0.001809    0.000000
   -1   -1    1    4    3    0.003611    0.000000
   -1   -1    1    1    4   -0.012774   -0.000000
   -1   -1    1    2    4    0.019924    0.000000
   -1   -1    1    3    4    0.019924   -0.000000
   -1   -1    1    4    4   -0.001809   -0.000000
   -1   -1    2    1    1   -0.007257    0.000000
   -1   -1    2    2    1   -0.001899    0.000000
   -1   -1    2    3    1    0.013114    0.000000
   -1   -1    2    4    1    0.001978    0.000000
   -1   -1    2    1    2    0.000868    0.000000
   -1   -1    2    2    2    0.003620    0.000000
   -1   -1    2    3    2   -0.012774   -0.000000
   -1   -1    2    4    2    0.000868    0.000000
   -1   -1    2    1    3    0.000274    0.000000
   -1   -1    2    2    3   -0.001435   -0.000000
   -1   -1    2    3    3    0.006011   -0.000000
   -1   -1    2    4    3    0.000274   -0.000000
   -1   -1    2    1    4    0.001978   -0.000000
   -1   -1    2    2    4   -0.001899   -0.000000
   -1   -1    2    3    4    0.013114    0.000000
   -1   -1    2    4    4   -0.007257   -0.000000
   -1   -1    3    1    1    0.005486    0.000000
   -1   -1    3    2    1   -0.001435    0.000000
   -1   -1    3    3    1   -0.001435    0.000000
   -1   -1    3    4    1   -0.001435   -0.000000
   -1   -1    3    1    2   -0.001435    0.000000
   -1   -1    3    2    2    0.005486    0.000000
   -1   -1    3    3    2   -0.001435   -0.000000
   -1   -1    3    4    2   -0.001435   -0.000000
   -1   -1    3    1    3   -0.001435   -0.000000
   -1   -1    3    2    3   -0.001435   -0.000000
   -1   -1    3    3    3    0.005486   -0.000000
   -1   -1    3    4    3   -0.001435   -0.000000
   -1   -1    3    1    4   -0.001435    0.000000
   -1   -1    3    2    4   -0.001435    0.000000
   -1   -1    3    3    4   -0.001435   -0.000000
   -1   -1    3    4    4    0.005486    0.000000
   -1    0   -1    1    1    0.003620    0.000000
   -1    0   -1    2    1   -0.012774    0.000000
   -1    0   -1    3    1    0.000868   -0.000000
   -1    0   -1    4    1    0.000868    0.000000
   -1    0   -1    1    2   -0.001435   -0.000000
   -1    0   -1    2    2    0.006011   -0.000000
   -1    0   -1    3    2    0.000274   -0.000000
   -1    0   -1    4    2    0.000274   -0.000000
   -1    0   -1    1    3   -0.001899   -0.000000
   -1    0   -1    2    3    0.013114   -0.000000
   -1    0   -1    3    3   -0.007257   -0.000000
   -1    0   -1    4    3    0.001978    0.000000
   -1    0   -1    1    4   -0.001899    0.000000
   -1    0   -1    2    4    0.013114    0.000000
   -1    0   -1    3    4    0.001978   -0.000000
   -1    0   -1    4    4   -0.007257    0.000000
   -1    0    0    1    1   -0.046842    0.000000
   -1    0    0    2    1   -0.088743   -0.000000
   -1    0    0    3    1    0.019924   -0.000000
   -1    0    0    4    1    0.013114    0.000000
   -1    0    0    1    2    0.013114    0.000000
   -1    0    0    2    2    0.344483   -0.000000
   -1    0    0    3    2    0.013114   -0.000000
   -1    0    0    4    2   -0.144420    0.000000
   -1    0    0    1    3    0.019924    0.000000
   -1    0    0    2    3   -0.088743   -0.000000
   -1    0    0    3    3   -0.046842    0.000000
   -1    0    0    4    3    0.013114    0.000000
   -1    0    0    1    4   -0.088743   -0.000000
   -1    0    0    2    4   -1.248328   -0.000000
   -1    0    0    3    4   -0.088743   -0.000000
   -1    0    0    4    4    0.344483   -0.000000
   -1    0    1    1    1   -0.046842   -0.000000
   -1    0    1    2    1    0.019924    0.000000
   -1    0    1    3    1   -0.088743    0.000000
   -1    0    1    4    1    0.013114    0.000000
   -1    0    1    1    2    0.019924   -0.000000
   -1    0    1    2    2   -0.046842    0.000000
   -1    0    1    3    2   -0.088743    0.000000
   -1    0    1    4    2    0.013114    0.000000
   -1    0    1    1    3    0.013114   -0.000000
   -1    0    1    2    3    0.013114    0.000000
   -1    0    1    3    3    0.344483    0.000000
   -1    0    1    4    3   -0.144420   -0.000000
   -1    0    1    1    4   -0.088743   -0.000000
   -1    0    1    2    4   -0.088743   -0.000000
   -1    0    1    3    4   -1.248328    0.000000
   -1    0    1    4    4    0.344483   -0.000000
   -1    0    2    1    1    0.003620    0.000000
   -1    0    2    2    1    0.000868    0.000000
   -1    0    2    3    1   -0.012774    0.000000
   -1    0    2    4    1    0.000868    0.000000
   -1    0    2    1    2   -0.001899    0.000000
   -1    0    2    2    2   -0.007257    0.000000
   -1    0    2    3    2    0.013114    0.000000
   -1    0    2    4    2    0.001978   -0.000000
   -1    0    2    1    3   -0.001435   -0.000000
   -1    0    2    2    3    0.000274    0.000000
   -1    0    2    3    3    0.006011    0.000000
   -1    0    2    4    3    0.000274    0.000000
   -1    0    2    1    4   -0.001899    0.000000
   -1    0    2    2    4    0.001978    0.000000
   -1    0    2    3    4    0.013114   -0.000000
   -1    0    2    4    4   -0.007257   -0.000000
   -1    1   -2    1    1    0.001914    0.000000
   -1    1   -2    2    1   -0.000852   -0.000000
   -1    1   -2    3    1   -0.000852    0.000000
   -1    1   -2    4    1   -0.000986    0.000000
   -1    1   -2    1    2    0.000868   -0.000000
   -1    1   -2    2    2   -0.001772   -0.000000
   -1    1   -2    3    2    0.003611    0.000000
   -1    1   -2    4    2   -0.000852    0.000000
   -1    1   -2    1    3    0.000868    0.000000
   -1    1   -2    2    3    0.003611    0.000000
   -1    1   -2    3    3   -0.001772   -0.000000
   -1    1   -2    4    3   -0.000852    0.000000
   -1    1   -2    1    4   -0.001876    0.000000
   -1    1   -2    2    4    0.000868   -0.000000
   -1    1   -2    3    4    0.000868    0.000000
   -1    1   -2    4    4    0.001914   -0.000000
   -1    1   -1    1    1   -0.001809    0.000000
   -1    1   -1    2    1   -0.012774   -0.000000
   -1    1   -1    3    1    0.003611   -0.000000
   -1    1   -1    4    1    0.003611    0.000000
   -1    1   -1    1    2   -0.012774   -0.000000
   -1    1   -1    2    2   -0.001809   -0.000000
   -1    1   -1    3    2    0.003611   -0.000000
   -1    1   -1    4    2    0.003611    0.000000
   -1    1   -1    1    3    0.019924    0.000000
   -1    1   -1    2    3    0.019924    0.000000
   -1    1   -1    3    3   -0.001809   -0.000000
   -1    1   -1    4    3   -0.012774   -0.000000
   -1    1   -1    1    4    0.019924   -0.000000
   -1    1   -1    2    4    0.019924    0.000000
   -1    1   -1    3    4   -0.012774   -0.000000
   -1    1   -1    4    4   -0.001809    0.000000
   -1    1    0    1    1    0.344483   -0.000000
   -1    1    0    2    1    0.013114   -0.000000
   -1    1    0    3    1    0.013114   -0.000000
   -1    1    0    4    1   -0.144420   -0.000000
   -1    1    0    1    2   -0.088743   -0.000000
   -1    1    0    2    2   -0.046842   -0.000000
   -1    1    0    3    2    0.019924   -0.000000
   -1    1    0    4    2    0.013114   -0.000000
   -1    1    0    1    3   -0.088743   -0.000000
   -1    1    0    2    3    0.019924   -0.000000
   -1    1    0    3    3   -0.046842   -0.000000
   -1    1    0    4    3    0.013114   -0.000000
   -1    1    0    1    4   -1.248328    0.000000
   -1    1    0    2    4   -0.088743    0.000000
   -1    1    0    3    4   -0.088743    0.000000
   -1    1    0    4    4    0.344483    0.000000
   -1    1    1    1    1   -0.001809   -0.000000
   -1    1    1    2    1    0.003611   -0.000000
   -1    1    1    3    1   -0.012774   -0.000000
   -1    1    1    4    1    0.003611    0.000000
   -1    1    1    1    2    0.019924   -0.000000
   -1    1    1    2    2   -0.001809    0.000000
   -1    1    1    3    2    0.019924   -0.000000
   -1    1    1    4    2   -0.012774    0.000000
   -1    1    1    1    3   -0.012774    0.000000
   -1    1    1    2    3    0.003611   -0.000000
   -1    1    1    3    3   -0.001809   -0.000000
   -1    1    1    4    3    0.003611   -0.000000
   -1    1    1    1    4    0.019924   -0.000000
   -1    1    1    2    4   -0.012774    0.000000
   -1    1    1    3    4    0.019924    0.000000
   -1    1    1    4    4   -0.001809    0.000000
   -1    1    2    1    1    0.001914    0.000000
   -1    1    2    2    1   -0.000852   -0.000000
   -1    1    2    3    1   -0.000852    0.000000
   -1    1    2    4    1   -0.000986    0.000000
   -1    1    2    1    2    0.000868   -0.000000
   -1    1    2    2    2   -0.001772   -0.000000
   -1    1    2    3    2    0.003611    0.000000
   -1    1    2    4    2   -0.000852    0.000000
   -1    1    2    1    3    0.000868    0.000000
   -1    1    2    2    3    0.003611    0.000000
   -1    1    2    3    3   -0.001772   -0.000000
   -1    1    2    4    3   -0.000852    0.000000
   -1    1    2    1    4   -0.001876    0.000000
   -1    1    2    2    4    0.000868   -0.000000
   -1    1    2    3    4    0.000868    0.000000
   -1    1    2    4    4    0.001914   -0.000000
   -1    2   -2    1    1   -0.001772   -0.000000
   -1    2   -2    2    1    0.000868   -0.000000
   -1    2   -2    3    1    0.003611    0.000000
   -1    2   -2    4    1   -0.000852    0.000000
   -1    2   -2    1    2   -0.000852    0.000000
   -1    2   -2    2    2    0.001914    0.000000
   -1    2   -2    3    2   -0.000852   -0.000000
   -1    2   -2    4    2   -0.000986    0.000000
   -1    2   -2    1    3    0.003611    0.000000
   -1    2   -2    2    3    0.000868    0.000000
   -1    2   -2    3    3   -0.001772    0.000000
   -1    2   -2    4    3   -0.000852    0.000000
   -1    2   -2    1    4    0.000868    0.000000
   -1    2   -2    2    4   -0.001876   -0.000000
   -1    2   -2    3    4    0.000868   -0.000000
   -1    2   -2    4    4    0.001914    0.000000
   -1    2   -1    1    1    0.006011    0.000000
   -1    2   -1    2    1   -0.001435    0.000000
   -1    2   -1    3    1    0.000274   -0.000000
   -1    2   -1    4    1    0.000274   -0.000000
   -1    2   -1    1    2   -0.012774    0.000000
   -1    2   -1    2    2    0.003620    0.000000
   -1    2   -1    3    2    0.000868    0.000000
   -1    2   -1    4    2    0.000868    0.000000
   -1    2   -1    1    3    0.013114    0.000000
   -1    2   -1    2    3   -0.001899   -0.000000
   -1    2   -1    3    3   -0.007257   -0.000000
   -1    2   -1    4    3    0.001978    0.000000
   -1    2   -1    1    4    0.013114    0.000000
   -1    2   -1    2    4   -0.001899    0.000000
   -1    2   -1    3    4    0.001978   -0.000000
   -1    2   -1    4    4   -0.007257   -0.000000
   -1    2    0    1    1    0.006011   -0.000000
   -1    2    0    2    1    0.000274   -0.000000
   -1    2    0    3    1   -0.001435   -0.000000
   -1    2    0    4    1    0.000274   -0.000000
   -1    2    0    1    2    0.013114    0.000000
   -1    2    0    2    2   -0.007257    0.000000
   -1    2    0    3    2   -0.001899    0.000000
   -1    2    0    4    2    0.001978    0.000000
   -1    2    0    1    3   -0.012774   -0.000000
   -1    2    0    2    3    0.000868   -0.000000
   -1    2    0    3    3    0.003620   -0.000000
   -1    2    0    4    3    0.000868   -0.000000
   -1    2    0    1    4    0.013114    0.000000
   -1    2    0    2    4    0.001978    0.000000
   -1    2    0    3    4   -0.001899    0.000000
   -1    2    0    4    4   -0.007257    0.000000
   -1    2    1    1    1   -0.001772    0.000000
   -1    2    1    2    1    0.003611    0.000000
   -1    2    1    3    1    0.000868    0.000000
   -1    2    1    4    1   -0.000852    0.000000
   -1    2    1    1    2    0.003611   -0.000000
   -1    2    1    2    2   -0.001772   -0.000000
   -1    2    1    3    2    0.000868    0.000000
   -1    2    1    4    2   -0.000852    0.000000
   -1    2    1    1    3   -0.000852   -0.000000
   -1    2    1    2    3   -0.000852    0.000000
   -1    2    1    3    3    0.001914   -0.000000
   -1    2    1    4    3   -0.000986    0.000000
   -1    2    1    1    4    0.000868   -0.000000
   -1    2    1    2    4    0.000868    0.000000
   -1    2    1    3    4   -0.001876   -0.000000
   -1    2    1    4    4    0.001914    0.000000
   -1    3   -1    1    1    0.005486    0.000000
   -1    3   -1    2    1   -0.001435    0.000000
   -1    3   -1    3    1   -0.001435    0.000000
   -1    3   -1    4    1   -0.001435   -0.000000
   -1    3   -1    1    2   -0.001435    0.000000
   -1    3   -1    2    2    0.005486    0.000000
   -1    3   -1    3    2   -0.001435   -0.000000
   -1    3   -1    4    2   -0.001435   -0.000000
   -1    3   -1    1    3   -0.001435   -0.000000
   -1    3   -1    2    3   -0.001435   -0.000000
   -1    3   -1    3    3    0.005486   -0.000000
   -1    3   -1    4    3   -0.001435   -0.000000
   -1    3   -1    1    4   -0.001435    0.000000
   -1    3   -1    2    4   -0.001435    0.000000
   -1    3   -1    3    4   -0.001435   -0.000000
   -1    3   -1    4    4    0.005486    0.000000
    0   -2    0    1    1    0.098496    0.000000
    0   -2    0    2    1   -0.144420   -0.000000
    0   -2    0    3    1    0.001978    0.000000
    0   -2    0    4    1    0.001978    0.000000
    0   -2    0    1    2   -0.144420    0.000000
    0   -2    0    2    2    0.098496    0.000000
    0   -2    0    3    2    0.001978   -0.000000
    0   -2    0    4    2    0.001978    0.000000
    0   -2    0    1    3    0.001978   -0.000000
    0   -2    0    2    3    0.001978    0.000000
    0   -2    0    3    3   -0.001749    0.000000
    0   -2    0    4    3   -0.001876    0.000000
    0   -2    0    1    4    0.001978   -0.000000
    0   -2    0    2    4    0.001978   -0.000000
    0   -2    0    3    4   -0.001876   -0.000000
    0   -2    0    4    4   -0.001749    0.000000
    0   -2    1    1    1    0.006011   -0.000000
    0   -2    1    2    1    0.013114    0.000000
    0   -2    1    3    1    0.013114   -0.000000
    0   -2    1    4    1   -0.012774    0.000000
    0   -2    1    1    2    0.000274   -0.000000
    0   -2    1    2    2   -0.007257   -0.000000
    0   -2    1    3    2    0.001978   -0.000000
    0   -2    1    4    2    0.000868   -0.000000
    0   -2    1    1    3    0.000274    0.000000
    0   -2    1    2    3    0.001978    0.000000
    0   -2    1    3    3   -0.007257    0.000000
    0   -2    1    4    3    0.000868    0.000000
    0   -2    1    1    4   -0.001435   -0.000000
    0   -2    1    2    4   -0.001899   -0.000000
    0   -2    1    3    4   -0.001899    0.000000
    0   -2    1    4    4    0.003620   -0.000000
    0   -2    2    1    1    0.098496    0.000000
    0   -2    2    2    1    0.001978    0.000000
    0   -2    2    3    1   -0.144420    0.000000
    0   -2    2    4    1    0.001978   -0.000000
    0   -2    2    1    2    0.001978   -0.000000
    0   -2    2    2    2   -0.001749   -0.000000
    0   -2    2    3    2    0.001978   -0.000000
    0   -2    2    4    2   -0.001876    0.000000
    0   -2    2    1    3   -0.144420   -0.000000
    0   -2    2    2    3    0.001978    0.000000
    0   -2    2    3    3    0.098496   -0.000000
    0   -2    2    4    3    0.001978   -0.000000
    0   -2    2    1    4    0.001978    0.000000
    0   -2    2    2    4   -0.001876   -0.000000
    0   -2    2    3    4    0.001978    0.000000
    0   -2    2    4    4   -0.001749   -0.000000
    0   -1   -1    1    1   -0.007257    0.000000
    0   -1   -1    2    1    0.013114    0.000000
    0   -1   -1    3    1    0.001978   -0.000000
    0   -1   -1    4    1   -0.001899   -0.000000
    0   -1   -1    1    2    0.000274   -0.000000
    0   -1   -1    2    2    0.006011   -0.000000
    0   -1   -1    3    2    0.000274   -0.000000
    0   -1   -1    4    2   -0.001435   -0.000000
    0   -1   -1    1    3    0.001978    0.000000
    0   -1   -1    2    3    0.013114    0.000000
    0   -1   -1    3    3   -0.007257   -0.000000
    0   -1   -1    4    3   -0.001899   -0.000000
    0   -1   -1    1    4    0.000868   -0.000000
    0   -1   -1    2    4   -0.012774    0.000000
    0   -1   -1    3    4    0.000868    0.000000
    0   -1   -1    4    4    0.003620   -0.000000
    0   -1    0    1    1    0.344483   -0.000000
    0   -1    0    2    1   -1.248328   -0.000000
    0   -1    0    3    1   -0.088743   -0.000000
    0   -1    0    4    1   -0.088743   -0.000000
    0   -1    0    1    2   -0.144420    0.000000
    0   -1    0    2    2    0.344483    0.000000
    0   -1    0    3    2    0.013114   -0.000000
    0   -1    0    4    2    0.013114   -0.000000
    0   -1    0    1    3    0.013114    0.000000
    0   -1    0    2    3   -0.088743    0.000000
    0   -1    0    3    3   -0.046842    0.000000
    0   -1    0    4    3    0.019924    0.000000
    0   -1    0    1    4    0.013114    0.000000
    0   -1    0    2    4   -0.088743    0.000000
    0   -1    0    3    4    0.019924    0.000000
    0   -1    0    4    4   -0.046842   -0.000000
    0   -1    1    1    1    0.344483   -0.000000
    0   -1    1    2    1   -0.088743    0.000000
    0   -1    1    3    1   -1.248328    0.000000
    0   -1    1    4    1   -0.088743    0.000000
    0   -1    1    1    2    0.013114   -0.000000
    0   -1    1    2    2   -0.046842    0.000000
    0   -1    1    3    2   -0.088743    0.000000
    0   -1    1    4    2    0.019924   -0.000000
    0   -1    1    1    3   -0.144420   -0.000000
    0   -1    1    2    3    0.013114    0.000000
    0   -1    1    3    3    0.344483    0.000000
    0   -1    1    4    3    0.013114    0.000000
    0   -1    1    1    4    0.013114   -0.000000
    0   -1    1    2    4    0.019924   -0.000000
    0   -1    1    3    4   -0.088743   -0.000000
    0   -1    1    4    4   -0.046842   -0.000000
    0   -1    2    1    1   -0.007257    0.000000
    0   -1    2    2    1    0.001978   -0.000000
    0   -1    2    3    1    0.013114   -0.000000
    0   -1    2    4    1   -0.001899    0.000000
    0   -1    2    1    2    0.001978    0.000000
    0   -1    2    2    2   -0.007257    0.000000
    0   -1    2    3    2    0.013114   -0.000000
    0   -1    2    4    2   -0.001899   -0.000000
    0   -1    2    1    3    0.000274    0.000000
    0   -1    2    2    3    0.000274    0.000000
    0   -1    2    3    3    0.006011    0.000000
    0   -1    2    4    3   -0.001435    0.000000
    0   -1    2    1    4    0.000868    0.000000
    0   -1    2    2    4    0.000868    0.000000
    0   -1    2    3    4   -0.012774   -0.000000
    0   -1    2    4    4    0.003620   -0.000000
    0    0   -2    1    1   -0.001749    0.000000
    0    0   -2    2    1    0.001978   -0.000000
    0    0   -2    3    1    0.001978   -0.000000
    0    0   -2    4    1   -0.001876    0.000000
    0    0   -2    1    2    0.001978    0.000000
    0    0   -2    2    2    0.098496    0.000000
    0    0   -2    3    2   -0.144420   -0.000000
    0    0   -2    4    2    0.001978   -0.000000
    0    0   -2    1    3    0.001978    0.000000
    0    0   -2    2    3   -0.144420    0.000000
    0    0   -2    3    3    0.098496    0.000000
    0    0   -2    4    3    0.001978    0.000000
    0    0   -2    1    4   -0.001876   -0.000000
    0    0   -2    2    4    0.001978    0.000000
    0    0   -2    3    4    0.001978   -0.000000
    0    0   -2    4    4   -0.001749    0.000000
    0    0   -1    1    1   -0.046842   -0.000000
    0    0   -1    2    1   -0.088743   -0.000000
    0    0   -1    3    1    0.013114   -0.000000
    0    0   -1    4    1    0.019924    0.000000
    0    0   -1    1    2    0.013114   -0.000000
    0    0   -1    2    2    0.344483   -0.000000
    0    0   -1    3    2   -0.144420   -0.000000
    0    0   -1    4    2    0.013114   -0.000000
    0    0   -1    1    3   -0.088743    0.000000
    0    0   -1    2    3   -1.248328   -0.000000
    0    0   -1    3    3    0.344483    0.000000
    0    0   -1    4    3   -0.088743    0.000000
    0    0   -1    1    4    0.019924    0.000000
    0    0   -1    2    4   -0.088743   -0.000000
    0    0   -1    3    4    0.013114    0.000000
    0    0   -1    4    4   -0.046842    0.000000
    0    0    0    1    1    1.221342   -0.000000
    0    0    0    2    1   -1.248328   -0.000000
    0    0    0    3    1   -1.248328    0.000000
    0    0    0    4    1   -1.248328    0.000000
    0    0    0    1    2   -1.248328    0.000000
    0    0    0    2    2    1.221342   -0.000000
    0    0    0    3    2   -1.248328    0.000000
    0    0    0    4    2   -1.248328    0.000000
    0    0    0    1    3   -1.248328   -0.000000
    0    0    0    2    3   -1.248328   -0.000000
    0    0    0    3    3    1.221342    0.000000
    0    0    0    4    3   -1.248328   -0.000000
    0    0    0    1    4   -1.248328   -0.000000
    0    0    0    2    4   -1.248328   -0.000000
    0    0    0    3    4   -1.248328    0.000000
    0    0    0    4    4    1.221342    0.000000
    0    0    1    1    1   -0.046842    0.000000
    0    0    1    2    1    0.013114    0.000000
    0    0    1    3    1   -0.088743   -0.000000
    0    0    1    4    1    0.019924   -0.000000
    0    0    1    1    2   -0.088743    0.000000
    0    0    1    2    2    0.344483    0.000000
    0    0    1    3    2   -1.248328    0.000000
    0    0    1    4    2   -0.088743    0.000000
    0    0    1    1    3    0.013114    0.000000
    0    0    1    2    3   -0.144420    0.000000
    0    0    1    3    3    0.344483   -0.000000
    0    0    1    4    3    0.013114   -0.000000
    0    0    1    1    4    0.019924   -0.000000
    0    0    1    2    4    0.013114    0.000000
    0    0    1    3    4   -0.088743   -0.000000
    0    0    1    4    4   -0.046842   -0.000000
    0    0    2    1    1   -0.001749   -0.000000
    0    0    2    2    1    0.001978   -0.000000
    0    0    2    3    1    0.001978   -0.000000
    0    0    2    4    1   -0.001876    0.000000
    0    0    2    1    2    0.001978    0.000000
    0    0    2    2    2    0.098496   -0.000000
    0    0    2    3    2   -0.144420   -0.000000
    0    0    2    4    2    0.001978   -0.000000
    0    0    2    1    3    0.001978    0.000000
    0    0    2    2    3   -0.144420    0.000000
    0    0    2    3    3    0.098496   -0.000000
    0    0    2    4    3    0.001978    0.000000
    0    0    2    1    4   -0.001876   -0.000000
    0    0    2    2    4    0.001978    0.000000
    0    0    2    3    4    0.001978   -0.000000
    0    0    2    4    4   -0.001749   -0.000000
    0    1   -2    1    1   -0.007257   -0.000000
    0    1   -2    2    1    0.001978   -0.000000
    0    1   -2    3    1    0.000274   -0.000000
    0    1   -2    4    1    0.000868   -0.000000
    0    1   -2    1    2    0.001978    0.000000
    0    1   -2    2    2   -0.007257   -0.000000
    0    1   -2    3    2    0.000274   -0.000000
    0    1   -2    4    2    0.000868   -0.000000
    0    1   -2    1    3    0.013114    0.000000
    0    1   -2    2    3    0.013114    0.000000
    0    1   -2    3    3    0.006011   -0.000000
    0    1   -2    4    3   -0.012774    0.000000
    0    1   -2    1    4   -0.001899   -0.000000
    0    1   -2    2    4   -0.001899    0.000000
    0    1   -2    3    4   -0.001435   -0.000000
    0    1   -2    4    4    0.003620    0.000000
    0    1   -1    1    1    0.344483    0.000000
    0    1   -1    2    1    0.013114    0.000000
    0    1   -1    3    1   -0.144420    0.000000
    0    1   -1    4    1    0.013114    0.000000
    0    1   -1    1    2   -0.088743   -0.000000
    0    1   -1    2    2   -0.046842   -0.000000
    0    1   -1    3    2    0.013114   -0.000000
    0    1   -1    4    2    0.019924    0.000000
    0    1   -1    1    3   -1.248328   -0.000000
    0    1   -1    2    3   -0.088743   -0.000000
    0    1   -1    3    3    0.344483   -0.000000
    0    1   -1    4    3   -0.088743    0.000000
    0    1   -1    1    4   -0.088743   -0.000000
    0    1   -1    2    4    0.019924    0.000000
    0    1   -1    3    4    0.013114   -0.000000
    0    1   -1    4    4   -0.046842    0.000000
    0    1    0    1    1    0.344483    0.000000
    0    1    0    2    1   -0.144420   -0.000000
    0    1    0    3    1    0.013114   -0.000000
    0    1    0    4    1    0.013114   -0.000000
    0    1    0    1    2   -1.248328    0.000000
    0    1    0    2    2    0.344483   -0.000000
    0    1    0    3    2   -0.088743   -0.000000
    0    1    0    4    2   -0.088743   -0.000000
    0    1    0    1    3   -0.088743    0.000000
    0    1    0    2    3    0.013114    0.000000
    0    1    0    3    3   -0.046842   -0.000000
    0    1    0    4    3    0.019924   -0.000000
    0    1    0    1    4   -0.088743    0.000000
    0    1    0    2    4    0.013114    0.000000
    0    1    0    3    4    0.019924   -0.000000
    0    1    0    4    4   -0.046842    0.000000
    0    1    1    1    1   -0.007257   -0.000000
    0    1    1    2    1    0.000274    0.000000
    0    1    1    3    1    0.001978   -0.000000
    0    1    1    4    1    0.000868    0.000000
    0    1    1    1    2    0.013114   -0.000000
    0    1    1    2    2    0.006011    0.000000
    0    1    1    3    2    0.013114   -0.000000
    0    1    1    4    2   -0.012774   -0.000000
    0    1    1    1    3    0.001978    0.000000
    0    1    1    2    3    0.000274    0.000000
    0    1    1    3    3   -0.007257    0.000000
    0    1    1    4    3    0.000868   -0.000000
    0    1    1    1    4   -0.001899    0.000000
    0    1    1    2    4   -0.001435    0.000000
    0    1    1    3    4   -0.001899    0.000000
    0    1    1    4    4    0.003620    0.000000
    0    2   -2    1    1    0.098496    0.000000
    0    2   -2    2    1    0.001978    0.000000
    0    2   -2    3    1   -0.144420    0.000000
    0    2   -2    4    1    0.001978   -0.000000
    0    2   -2    1    2    0.001978   -0.000000
    0    2   -2    2    2   -0.001749   -0.000000
    0    2   -2    3    2    0.001978   -0.000000
    0    2   -2    4    2   -0.001876    0.000000
    0    2   -2    1    3   -0.144420   -0.000000
    0    2   -2    2    3    0.001978    0.000000
    0    2   -2    3    3    0.098496   -0.000000
    0    2   -2    4    3    0.001978   -0.000000
    0    2   -2    1    4    0.001978    0.000000
    0    2   -2    2    4   -0.001876   -0.000000
    0    2   -2    3    4    0.001978    0.000000
    0    2   -2    4    4   -0.001749   -0.000000
    0    2   -1    1    1    0.006011    0.000000
    0    2   -1    2    1    0.000274    0.000000
    0    2   -1    3    1    0.000274   -0.000000
    0    2   -1    4    1   -0.001435    0.000000
    0    2   -1    1    2    0.013114   -0.000000
    0    2   -1    2    2   -0.007257    0.000000
    0    2   -1    3    2    0.001978   -0.000000
    0    2   -1    4    2   -0.001899    0.000000
    0    2   -1    1    3    0.013114    0.000000
    0    2   -1    2    3    0.001978    0.000000
    0    2   -1    3    3   -0.007257   -0.000000
    0    2   -1    4    3   -0.001899   -0.000000
    0    2   -1    1    4   -0.012774   -0.000000
    0    2   -1    2    4    0.000868    0.000000
    0    2   -1    3    4    0.000868   -0.000000
    0    2   -1    4    4    0.003620    0.000000
    0    2    0    1    1    0.098496   -0.000000
    0    2    0    2    1   -0.144420   -0.000000
    0    2    0    3    1    0.001978    0.000000
    0    2    0    4    1    0.001978    0.000000
    0    2    0    1    2   -0.144420    0.000000
    0    2    0    2    2    0.098496   -0.000000
    0    2    0    3    2    0.001978   -0.000000
    0    2    0    4    2    0.001978    0.000000
    0    2    0    1    3    0.001978   -0.000000
    0    2    0    2    3    0.001978    0.000000
    0    2    0    3    3   -0.001749   -0.000000
    0    2    0    4    3   -0.001876    0.000000
    0    2    0    1    4    0.001978   -0.000000
    0    2    0    2    4    0.001978   -0.000000
    0    2    0    3    4   -0.001876   -0.000000
    0    2    0    4    4   -0.001749   -0.000000
    1   -3    1    1    1    0.005486   -0.000000
    1   -3    1    2    1   -0.001435   -0.000000
    1   -3    1    3    1   -0.001435    0.000000
    1   -3    1    4    1   -0.001435   -0.000000
    1   -3    1    1    2   -0.001435   -0.000000
    1   -3    1    2    2    0.005486   -0.000000
    1   -3    1    3    2   -0.001435    0.000000
    1   -3    1    4    2   -0.001435   -0.000000
    1   -3    1    1    3   -0.001435   -0.000000
    1   -3    1    2    3   -0.001435    0.000000
    1   -3    1    3    3    0.005486    0.000000
    1   -3    1    4    3   -0.001435    0.000000
    1   -3    1    1    4   -0.001435    0.000000
    1   -3    1    2    4   -0.001435    0.000000
    1   -3    1    3    4   -0.001435    0.000000
    1   -3    1    4    4    0.005486   -0.000000
    1   -2   -1    1    1   -0.001772   -0.000000
    1   -2   -1    2    1    0.003611    0.000000
    1   -2   -1    3    1   -0.000852    0.000000
    1   -2   -1    4    1    0.000868    0.000000
    1   -2   -1    1    2    0.003611   -0.000000
    1   -2   -1    2    2   -0.001772    0.000000
    1   -2   -1    3    2   -0.000852   -0.000000
    1   -2   -1    4    2    0.000868   -0.000000
    1   -2   -1    1    3    0.000868   -0.000000
    1   -2   -1    2    3    0.000868   -0.000000
    1   -2   -1    3    3    0.001914    0.000000
    1   -2   -1    4    3   -0.001876    0.000000
    1   -2   -1    1    4   -0.000852   -0.000000
    1   -2   -1    2    4   -0.000852   -0.000000
    1   -2   -1    3    4   -0.000986   -0.000000
    1   -2   -1    4    4    0.001914   -0.000000
    1   -2    0    1    1    0.006011    0.000000
    1   -2    0    2    1    0.013114   -0.000000
    1   -2    0    3    1   -0.012774    0.000000
    1   -2    0    4    1    0.013114   -0.000000
    1   -2    0    1    2    0.000274    0.000000
    1   -2    0    2    2   -0.007257   -0.000000
    1   -2    0    3    2    0.000868    0.000000
    1   -2    0    4    2    0.001978   -0.000000
    1   -2    0    1    3   -0.001435    0.000000
    1   -2    0    2    3   -0.001899   -0.000000
    1   -2    0    3    3    0.003620    0.000000
    1   -2    0    4    3   -0.001899   -0.000000
    1   -2    0    1    4    0.000274    0.000000
    1   -2    0    2    4    0.001978   -0.000000
    1   -2    0    3    4    0.000868    0.000000
    1   -2    0    4    4   -0.007257   -0.000000
    1   -2    1    1    1    0.006011   -0.000000
    1   -2    1    2    1   -0.012774   -0.000000
    1   -2    1    3    1    0.013114   -0.000000
    1   -2    1    4    1    0.013114   -0.000000
    1   -2    1    1    2   -0.001435   -0.000000
    1   -2    1    2    2    0.003620   -0.000000
    1   -2    1    3    2   -0.001899    0.000000
    1   -2    1    4    2   -0.001899   -0.000000
    1   -2    1    1    3    0.000274    0.000000
    1   -2    1    2    3    0.000868   -0.000000
    1   -2    1    3    3   -0.007257    0.000000
    1   -2    1    4    3    0.001978    0.000000
    1   -2    1    1    4    0.000274    0.000000
    1   -2    1    2    4    0.000868   -0.000000
    1   -2    1    3    4    0.001978   -0.000000
    1   -2    1    4    4   -0.007257    0.000000
    1   -2    2    1    1   -0.001772    0.000000
    1   -2    2    2    1   -0.000852   -0.000000
    1   -2    2    3    1    0.003611   -0.000000
    1   -2    2    4    1    0.000868   -0.000000
    1   -2    2    1    2    0.000868    0.000000
    1   -2    2    2    2    0.001914   -0.000000
    1   -2    2    3    2    0.000868   -0.000000
    1   -2    2    4    2   -0.001876    0.000000
    1   -2    2    1    3    0.003611   -0.000000
    1   -2    2    2    3   -0.000852    0.000000
    1   -2    2    3    3   -0.001772   -0.000000
    1   -2    2    4    3    0.000868    0.000000
    1   -2    2    1    4   -0.000852   -0.000000
    1   -2    2    2    4   -0.000986   -0.000000
    1   -2    2    3    4   -0.000852   -0.000000
    1   -2    2    4    4    0.001914   -0.000000
    1   -1   -2    1    1    0.001914   -0.000000
    1   -1   -2    2    1    0.000868    0.000000
    1   -1   -2    3    1    0.000868   -0.000000
    1   -1   -2    4    1   -0.001876   -0.000000
    1   -1   -2    1    2   -0.000852    0.000000
    1   -1   -2    2    2   -0.001772    0.000000
    1   -1   -2    3    2    0.003611   -0.000000
    1   -1   -2    4    2    0.000868    0.000000
    1   -1   -2    1    3   -0.000852   -0.000000
    1   -1   -2    2    3    0.003611   -0.000000
    1   -1   -2    3    3   -0.001772    0.000000
    1   -1   -2    4    3    0.000868   -0.000000
    1   -1   -2    1    4   -0.000986   -0.000000
    1   -1   -2    2    4   -0.000852   -0.000000
    1   -1   -2    3    4   -0.000852   -0.000000
    1   -1   -2    4    4    0.001914    0.000000
    1   -1   -1    1    1   -0.001809    0.000000
    1   -1   -1    2    1    0.019924    0.000000
    1   -1   -1    3    1   -0.012774   -0.000000
    1   -1   -1    4    1    0.019924    0.000000
    1   -1   -1    1    2    0.003611    0.000000
    1   -1   -1    2    2   -0.001809   -0.000000
    1   -1   -1    3    2    0.003611    0.000000
    1   -1   -1    4    2   -0.012774   -0.000000
    1   -1   -1    1    3   -0.012774    0.000000
    1   -1   -1    2    3    0.019924    0.000000
    1   -1   -1    3    3   -0.001809    0.000000
    1   -1   -1    4    3    0.019924   -0.000000
    1   -1   -1    1    4    0.003611   -0.000000
    1   -1   -1    2    4   -0.012774   -0.000000
    1   -1   -1    3    4    0.003611    0.000000
    1   -1   -1    4    4   -0.001809   -0.000000
    1   -1    0    1    1    0.344483    0.000000
    1   -1    0    2    1   -0.088743    0.000000
    1   -1    0    3    1   -0.088743    0.000000
    1   -1    0    4    1   -1.248328   -0.000000
    1   -1    0    1    2    0.013114    0.000000
    1   -1    0    2    2   -0.046842    0.000000
    1   -1    0    3    2    0.019924    0.000000
    1   -1    0    4    2   -0.088743   -0.000000
    1   -1    0    1    3    0.013114    0.000000
    1   -1    0    2    3    0.019924    0.000000
    1   -1    0    3    3   -0.046842    0.000000
    1   -1    0    4    3   -0.088743   -0.000000
    1   -1    0    1    4   -0.144420    0.000000
    1   -1    0    2    4    0.013114    0.000000
    1   -1    0    3    4    0.013114    0.000000
    1   -1    0    4    4    0.344483   -0.000000
    1   -1    1    1    1   -0.001809   -0.000000
    1   -1    1    2    1   -0.012774    0.000000
    1   -1    1    3    1    0.019924   -0.000000
    1   -1    1    4    1    0.019924    0.000000
    1   -1    1    1    2   -0.012774    0.000000
    1   -1    1    2    2   -0.001809    0.000000
    1   -1    1    3    2    0.019924   -0.000000
    1   -1    1    4    2    0.019924   -0.000000
    1   -1    1    1    3    0.003611    0.000000
    1   -1    1    2    3    0.003611    0.000000
    1   -1    1    3    3   -0.001809    0.000000
    1   -1    1    4    3   -0.012774    0.000000
    1   -1    1    1    4    0.003611   -0.000000
    1   -1    1    2    4    0.003611   -0.000000
    1   -1    1    3    4   -0.012774    0.000000
    1   -1    1    4    4   -0.001809   -0.000000
    1   -1    2    1    1    0.001914   -0.000000
    1   -1    2    2    1    0.000868    0.000000
    1   -1    2    3    1    0.000868   -0.000000
    1   -1    2    4    1   -0.001876   -0.000000
    1   -1    2    1    2   -0.000852    0.000000
    1   -1    2    2    2   -0.001772    0.000000
    1   -1    2    3    2    0.003611   -0.000000
    1   -1    2    4    2    0.000868    0.000000
    1   -1    2    1    3   -0.000852   -0.000000
    1   -1    2    2    3    0.003611   -0.000000
    1   -1    2    3    3   -0.001772    0.000000
    1   -1    2    4    3    0.000868   -0.000000
    1   -1    2    1    4   -0.000986   -0.000000
    1   -1    2    2    4   -0.000852   -0.000000
    1   -1    2    3    4   -0.000852   -0.000000
    1   -1    2    4    4    0.001914    0.000000
    1    0   -2    1    1    0.003620   -0.000000
    1    0   -2    2    1   -0.001899   -0.000000
    1    0   -2    3    1   -0.001435    0.000000
    1    0   -2    4    1   -0.001899   -0.000000
    1    0   -2    1    2    0.000868   -0.000000
    1    0   -2    2    2   -0.007257   -0.000000
    1    0   -2    3    2    0.000274   -0.000000
    1    0   -2    4    2    0.001978   -0.000000
    1    0   -2    1    3   -0.012774   -0.000000
    1    0   -2    2    3    0.013114   -0.000000
    1    0   -2    3    3    0.006011   -0.000000
    1    0   -2    4    3    0.013114    0.000000
    1    0   -2    1    4    0.000868   -0.000000
    1    0   -2    2    4    0.001978    0.000000
    1    0   -2    3    4    0.000274   -0.000000
    1    0   -2    4    4   -0.007257    0.000000
    1    0   -1    1    1   -0.046842    0.000000
    1    0   -1    2    1    0.019924    0.000000
    1    0   -1    3    1    0.013114    0.000000
    1    0   -1    4    1   -0.088743    0.000000
    1    0   -1    1    2    0.019924   -0.000000
    1    0   -1    2    2   -0.046842   -0.000000
    1    0   -1    3    2    0.013114   -0.000000
    1    0   -1    4    2   -0.088743    0.000000
    1    0   -1    1    3   -0.088743   -0.000000
    1    0   -1    2    3   -0.088743   -0.000000
    1    0   -1    3    3    0.344483   -0.000000
    1    0   -1    4    3   -1.248328   -0.000000
    1    0   -1    1    4    0.013114   -0.000000
    1    0   -1    2    4    0.013114   -0.000000
    1    0   -1    3    4   -0.144420    0.000000
    1    0   -1    4    4    0.344483    0.000000
    1    0    0    1    1   -0.046842   -0.000000
    1    0    0    2    1    0.013114   -0.000000
    1    0    0    3    1    0.019924   -0.000000
    1    0    0    4    1   -0.088743    0.000000
    1    0    0    1    2   -0.088743    0.000000
    1    0    0    2    2    0.344483    0.000000
    1    0    0    3    2   -0.088743    0.000000
    1    0    0    4    2   -1.248328    0.000000
    1    0    0    1    3    0.019924    0.000000
    1    0    0    2    3    0.013114    0.000000
    1    0    0    3    3   -0.046842   -0.000000
    1    0    0    4    3   -0.088743    0.000000
    1    0    0    1    4    0.013114   -0.000000
    1    0    0    2    4   -0.144420   -0.000000
    1    0    0    3    4    0.013114   -0.000000
    1    0    0    4    4    0.344483    0.000000
    1    0    1    1    1    0.003620   -0.000000
    1    0    1    2    1   -0.001435    0.000000
    1    0    1    3    1   -0.001899    0.000000
    1    0    1    4    1   -0.001899   -0.000000
    1    0    1    1    2   -0.012774   -0.000000
    1    0    1    2    2    0.006011    0.000000
    1    0    1    3    2    0.013114    0.000000
    1    0    1    4    2    0.013114   -0.000000
    1    0    1    1    3    0.000868    0.000000
    1    0    1    2    3    0.000274    0.000000
    1    0    1    3    3   -0.007257    0.000000
    1    0    1    4    3    0.001978    0.000000
    1    0    1    1    4    0.000868   -0.000000
    1    0    1    2    4    0.000274    0.000000
    1    0    1    3    4    0.001978   -0.000000
    1    0    1    4    4   -0.007257   -0.000000
    1    1   -3    1    1    0.005486   -0.000000
    1    1   -3    2    1   -0.001435   -0.000000
    1    1   -3    3    1   -0.001435    0.000000
    1    1   -3    4    1   -0.001435   -0.000000
    1    1   -3    1    2   -0.001435   -0.000000
    1    1   -3    2    2    0.005486   -0.000000
    1    1   -3    3    2   -0.001435    0.000000
    1    1   -3    4    2   -0.001435   -0.000000
    1    1   -3    1    3   -0.001435   -0.000000
    1    1   -3    2    3   -0.001435    0.000000
    1    1   -3    3    3    0.005486    0.000000
    1    1   -3    4    3   -0.001435    0.000000
    1    1   -3    1    4   -0.001435    0.000000
    1    1   -3    2    4   -0.001435    0.000000
    1    1   -3    3    4   -0.001435    0.000000
    1    1   -3    4    4    0.005486   -0.000000
    1    1   -2    1    1   -0.007257   -0.000000
    1    1   -2    2    1    0.000868   -0.000000
    1    1   -2    3    1    0.000274   -0.000000
    1    1   -2    4    1    0.001978    0.000000
    1    1   -2    1    2   -0.001899   -0.000000
    1    1   -2    2    2    0.003620   -0.000000
    1    1   -2    3    2   -0.001435    0.000000
    1    1   -2    4    2   -0.001899    0.000000
    1    1   -2    1    3    0.013114   -0.000000
    1    1   -2    2    3   -0.012774    0.000000
    1    1   -2    3    3    0.006011    0.000000
    1    1   -2    4    3    0.013114   -0.000000
    1    1   -2    1    4    0.001978   -0.000000
    1    1   -2    2    4    0.000868   -0.000000
    1    1   -2    3    4    0.000274    0.000000
    1    1   -2    4    4   -0.007257    0.000000
    1    1   -1    1    1   -0.001809    0.000000
    1    1   -1    2    1    0.003611    0.000000
    1    1   -1    3    1    0.003611   -0.000000
    1    1   -1    4    1   -0.012774    0.000000
    1    1   -1    1    2    0.019924   -0.000000
    1    1   -1    2    2   -0.001809    0.000000
    1    1   -1    3    2   -0.012774   -0.000000
    1    1   -1    4    2    0.019924   -0.000000
    1    1   -1    1    3    0.019924    0.000000
    1    1   -1    2    3   -0.012774   -0.000000
    1    1   -1    3    3   -0.001809   -0.000000
    1    1   -1    4    3    0.019924    0.000000
    1    1   -1    1    4   -0.012774   -0.000000
    1    1   -1    2    4    0.003611   -0.000000
    1    1   -1    3    4    0.003611   -0.000000
    1    1   -1    4    4   -0.001809    0.000000
    1    1    0    1    1   -0.007257    0.000000
    1    1    0    2    1    0.000274   -0.000000
    1    1    0    3    1    0.000868    0.000000
    1    1    0    4    1    0.001978    0.000000
    1    1    0    1    2    0.013114    0.000000
    1    1    0    2    2    0.006011    0.000000
    1    1    0    3    2   -0.012774   -0.000000
    1    1    0    4    2    0.013114   -0.000000
    1    1    0    1    3   -0.001899   -0.000000
    1    1    0    2    3   -0.001435   -0.000000
    1    1    0    3    3    0.003620   -0.000000
    1    1    0    4    3   -0.001899    0.000000
    1    1    0    1    4    0.001978   -0.000000
    1    1    0    2    4    0.000274   -0.000000
    1    1    0    3    4    0.000868    0.000000
    1    1    0    4    4   -0.007257   -0.000000
    1    1    1    1    1    0.005486   -0.000000
    1    1    1    2    1   -0.001435   -0.000000
    1    1    1    3    1   -0.001435    0.000000
    1    1    1    4    1   -0.001435   -0.000000
    1    1    1    1    2   -0.001435   -0.000000
    1    1    1    2    2    0.005486   -0.000000
    1    1    1    3    2   -0.001435    0.000000
    1    1    1    4    2   -0.001435   -0.000000
    1    1    1    1    3   -0.001435   -0.000000
    1    1    1    2    3   -0.001435    0.000000
    1    1    1    3    3    0.005486    0.000000
    1    1    1    4    3   -0.001435    0.000000
    1    1    1    1    4   -0.001435    0.000000
    1    1    1    2    4   -0.001435    0.000000
    1    1    1    3    4   -0.001435    0.000000
    1    1    1    4    4    0.005486   -0.000000
    1    2   -2    1    1   -0.001772    0.000000
    1    2   -2    2    1   -0.000852   -0.000000
    1    2   -2    3    1    0.003611   -0.000000
    1    2   -2    4    1    0.000868   -0.000000
    1    2   -2    1    2    0.000868    0.000000
    1    2   -2    2    2    0.001914   -0.000000
    1    2   -2    3    2    0.000868   -0.000000
    1    2   -2    4    2   -0.001876    0.000000
    1    2   -2    1    3    0.003611   -0.000000
    1    2   -2    2    3   -0.000852    0.000000
    1    2   -2    3    3   -0.001772   -0.000000
    1    2   -2    4    3    0.000868    0.000000
    1    2   -2    1    4   -0.000852   -0.000000
    1    2   -2    2    4   -0.000986   -0.000000
    1    2   -2    3    4   -0.000852   -0.000000
    1    2   -2    4    4    0.001914   -0.000000
    1    2   -1    1    1   -0.001772   -0.000000
    1    2   -1    2    1    0.003611    0.000000
    1    2   -1    3    1   -0.000852    0.000000
    1    2   -1    4    1    0.000868    0.000000
    1    2   -1    1    2    0.003611   -0.000000
    1    2   -1    2    2   -0.001772    0.000000
    1    2   -1    3    2   -0.000852   -0.000000
    1    2   -1    4    2    0.000868   -0.000000
    1    2   -1    1    3    0.000868   -0.000000
    1    2   -1    2    3    0.000868   -0.000000
    1    2   -1    3    3    0.001914    0.000000
    1    2   -1    4    3   -0.001876    0.000000
    1    2   -1    1    4   -0.000852   -0.000000
    1    2   -1    2    4   -0.000852   -0.000000
    1    2   -1    3    4   -0.000986   -0.000000
    1    2   -1    4    4    0.001914   -0.000000
    2   -2   -2    1    1    0.003167   -0.000000
    2   -2   -2    2    1   -0.000986   -0.000000
    2   -2   -2    3    1   -0.000986   -0.000000
    2   -2   -2    4    1   -0.000986   -0.000000
    2   -2   -2    1    2   -0.000986    0.000000
    2   -2   -2    2    2    0.003167   -0.000000
    2   -2   -2    3    2   -0.000986   -0.000000
    2   -2   -2    4    2   -0.000986    0.000000
    2   -2   -2    1    3   -0.000986    0.000000
    2   -2   -2    2    3   -0.000986    0.000000
    2   -2   -2    3    3    0.003167    0.000000
    2   -2   -2    4    3   -0.000986    0.000000
    2   -2   -2    1    4   -0.000986    0.000000
    2   -2   -2    2    4   -0.000986   -0.000000
    2   -2   -2    3    4   -0.000986   -0.000000
    2   -2   -2    4    4    0.003167    0.000000
    2   -2   -1    1    1   -0.001772    0.000000
    2   -2   -1    2    1    0.000868   -0.000000
    2   -2   -1    3    1   -0.000852   -0.000000
    2   -2   -1    4    1    0.003611    0.000000
    2   -2   -1    1    2   -0.000852   -0.000000
    2   -2   -1    2    2    0.001914   -0.000000
    2   -2   -1    3    2   -0.000986   -0.000000
    2   -2   -1    4    2   -0.000852    0.000000
    2   -2   -1    1    3    0.000868    0.000000
    2   -2   -1    2    3   -0.001876    0.000000
    2   -2   -1    3    3    0.001914   -0.000000
    2   -2   -1    4    3    0.000868    0.000000
    2   -2   -1    1    4    0.003611    0.000000
    2   -2   -1    2    4    0.000868   -0.000000
    2   -2   -1    3    4   -0.000852   -0.000000
    2   -2   -1    4    4   -0.001772    0.000000
    2   -2    0    1    1    0.098496   -0.000000
    2   -2    0    2    1    0.001978   -0.000000
    2   -2    0    3    1    0.001978   -0.000000
    2   -2    0    4    1   -0.144420   -0.000000
    2   -2    0    1    2    0.001978    0.000000
    2   -2    0    2    2   -0.001749   -0.000000
    2   -2    0    3    2   -0.001876   -0.000000
    2   -2    0    4    2    0.001978   -0.000000
    2   -2    0    1    3    0.001978    0.000000
    2   -2    0    2    3   -0.001876    0.000000
    2   -2    0    3    3   -0.001749   -0.000000
    2   -2    0    4    3    0.001978    0.000000
    2   -2    0    1    4   -0.144420    0.000000
    2   -2    0    2    4    0.001978    0.000000
    2   -2    0    3    4    0.001978   -0.000000
    2   -2    0    4    4    0.098496    0.000000
    2   -2    1    1    1   -0.001772   -0.000000
    2   -2    1    2    1   -0.000852    0.000000
    2   -2    1    3    1    0.000868   -0.000000
    2   -2    1    4    1    0.003611   -0.000000
    2   -2    1    1    2    0.000868    0.000000
    2   -2    1    2    2    0.001914    0.000000
    2   -2    1    3    2   -0.001876   -0.000000
    2   -2    1    4    2    0.000868    0.000000
    2   -2    1    1    3   -0.000852    0.000000
    2   -2    1    2    3   -0.000986    0.000000
    2   -2    1    3    3    0.001914    0.000000
    2   -2    1    4    3   -0.000852    0.000000
    2   -2    1    1    4    0.003611   -0.000000
    2   -2    1    2    4   -0.000852   -0.000000
    2   -2    1    3    4    0.000868   -0.000000
    2   -2    1    4    4   -0.001772   -0.000000
    2   -2    2    1    1    0.003167   -0.000000
    2   -2    2    2    1   -0.000986   -0.000000
    2   -2    2    3    1   -0.000986   -0.000000
    2   -2    2    4    1   -0.000986   -0.000000
    2   -2    2    1    2   -0.000986    0.000000
    2   -2    2    2    2    0.003167   -0.000000
    2   -2    2    3    2   -0.000986   -0.000000
    2   -2    2    4    2   -0.000986    0.000000
    2   -2    2    1    3   -0.000986    0.000000
    2   -2    2    2    3   -0.000986    0.000000
    2   -2    2    3    3    0.003167    0.000000
    2   -2    2    4    3   -0.000986    0.000000
    2   -2    2    1    4   -0.000986    0.000000
    2   -2    2    2    4   -0.000986   -0.000000
    2   -2    2    3    4   -0.000986   -0.000000
    2   -2    2    4    4    0.003167    0.000000
    2   -1   -2    1    1    0.001914    0.000000
    2   -1   -2    2    1   -0.001876   -0.000000
    2   -1   -2    3    1    0.000868   -0.000000
    2   -1   -2    4    1    0.000868    0.000000
    2   -1   -2    1    2   -0.000986    0.000000
    2   -1   -2    2    2    0.001914   -0.000000
    2   -1   -2    3    2   -0.000852    0.000000
    2   -1   -2    4    2   -0.000852   -0.000000
    2   -1   -2    1    3   -0.000852    0.000000
    2   -1   -2    2    3    0.000868    0.000000
    2   -1   -2    3    3   -0.001772    0.000000
    2   -1   -2    4    3    0.003611    0.000000
    2   -1   -2    1    4   -0.000852   -0.000000
    2   -1   -2    2    4    0.000868   -0.000000
    2   -1   -2    3    4    0.003611    0.000000
    2   -1   -2    4    4   -0.001772   -0.000000
    2   -1   -1    1    1   -0.007257   -0.000000
    2   -1   -1    2    1   -0.001899   -0.000000
    2   -1   -1    3    1    0.001978    0.000000
    2   -1   -1    4    1    0.013114    0.000000
    2   -1   -1    1    2    0.000868   -0.000000
    2   -1   -1    2    2    0.003620   -0.000000
    2   -1   -1    3    2    0.000868    0.000000
    2   -1   -1    4    2   -0.012774   -0.000000
    2   -1   -1    1    3    0.001978    0.000000
    2   -1   -1    2    3   -0.001899    0.000000
    2   -1   -1    3    3   -0.007257    0.000000
    2   -1   -1    4    3    0.013114    0.000000
    2   -1   -1    1    4    0.000274    0.000000
    2   -1   -1    2    4   -0.001435    0.000000
    2   -1   -1    3    4    0.000274    0.000000
    2   -1   -1    4    4    0.006011    0.000000
    2   -1    0    1    1   -0.007257   -0.000000
    2   -1    0    2    1    0.001978    0.000000
    2   -1    0    3    1   -0.001899   -0.000000
    2   -1    0    4    1    0.013114   -0.000000
    2   -1    0    1    2    0.001978    0.000000
    2   -1    0    2    2   -0.007257   -0.000000
    2   -1    0    3    2   -0.001899   -0.000000
    2   -1    0    4    2    0.013114   -0.000000
    2   -1    0    1    3    0.000868    0.000000
    2   -1    0    2    3    0.000868    0.000000
    2   -1    0    3    3    0.003620    0.000000
    2   -1    0    4    3   -0.012774    0.000000
    2   -1    0    1    4    0.000274    0.000000
    2   -1    0    2    4    0.000274    0.000000
    2   -1    0    3    4   -0.001435   -0.000000
    2   -1    0    4    4    0.006011    0.000000
    2   -1    1    1    1    0.001914    0.000000
    2   -1    1    2    1    0.000868   -0.000000
    2   -1    1    3    1   -0.001876    0.000000
    2   -1    1    4    1    0.000868    0.000000
    2   -1    1    1    2   -0.000852   -0.000000
    2   -1    1    2    2   -0.001772    0.000000
    2   -1    1    3    2    0.000868   -0.000000
    2   -1    1    4    2    0.003611    0.000000
    2   -1    1    1    3   -0.000986    0.000000
    2   -1    1    2    3   -0.000852    0.000000
    2   -1    1    3    3    0.001914    0.000000
    2   -1    1    4    3   -0.000852    0.000000
    2   -1    1    1    4   -0.000852   -0.000000
    2   -1    1    2    4    0.003611   -0.000000
    2   -1    1    3    4    0.000868    0.000000
    2   -1    1    4    4   -0.001772   -0.000000
    2    0   -2    1    1   -0.001749    0.000000
    2    0   -2    2    1   -0.001876    0.000000
    2    0   -2    3    1    0.001978   -0.000000
    2    0   -2    4    1    0.001978   -0.000000
    2    0   -2    1    2   -0.001876   -0.000000
    2    0   -2    2    2   -0.001749    0.000000
    2    0   -2    3    2    0.001978   -0.000000
    2    0   -2    4    2    0.001978    0.000000
    2    0   -2    1    3    0.001978    0.000000
    2    0   -2    2    3    0.001978    0.000000
    2    0   -2    3    3    0.098496    0.000000
    2    0   -2    4    3   -0.144420   -0.000000
    2    0   -2    1    4    0.001978    0.000000
    2    0   -2    2    4    0.001978   -0.000000
    2    0   -2    3    4   -0.144420    0.000000
    2    0   -2    4    4    0.098496    0.000000
    2    0   -1    1    1    0.003620    0.000000
    2    0   -1    2    1    0.000868   -0.000000
    2    0   -1    3    1    0.000868   -0.000000
    2    0   -1    4    1   -0.012774    0.000000
    2    0   -1    1    2   -0.001899    0.000000
    2    0   -1    2    2   -0.007257   -0.000000
    2    0   -1    3    2    0.001978   -0.000000
    2    0   -1    4    2    0.013114    0.000000
    2    0   -1    1    3   -0.001899   -0.000000
    2    0   -1    2    3    0.001978   -0.000000
    2    0   -1    3    3   -0.007257   -0.000000
    2    0   -1    4    3    0.013114    0.000000
    2    0   -1    1    4   -0.001435    0.000000
    2    0   -1    2    4    0.000274    0.000000
    2    0   -1    3    4    0.000274   -0.000000
    2    0   -1    4    4    0.006011    0.000000
    2    0    0    1    1   -0.001749   -0.000000
    2    0    0    2    1    0.001978    0.000000
    2    0    0    3    1   -0.001876   -0.000000
    2    0    0    4    1    0.001978    0.000000
    2    0    0    1    2    0.001978   -0.000000
    2    0    0    2    2    0.098496   -0.000000
    2    0    0    3    2    0.001978   -0.000000
    2    0    0    4    2   -0.144420    0.000000
    2    0    0    1    3   -0.001876    0.000000
    2    0    0    2    3    0.001978    0.000000
    2    0    0    3    3   -0.001749   -0.000000
    2    0    0    4    3    0.001978    0.000000
    2    0    0    1    4    0.001978   -0.000000
    2    0    0    2    4   -0.144420   -0.000000
    2    0    0    3    4    0.001978   -0.000000
    2    0    0    4    4    0.098496   -0.000000
    2    1   -2    1    1    0.001914   -0.000000
    2    1   -2    2    1   -0.000986   -0.000000
    2    1   -2    3    1   -0.000852   -0.000000
    2    1   -2    4    1   -0.000852    0.000000
    2    1   -2    1    2   -0.001876    0.000000
    2    1   -2    2    2    0.001914    0.000000
    2    1   -2    3    2    0.000868   -0.000000
    2    1   -2    4    2    0.000868    0.000000
    2    1   -2    1    3    0.000868    0.000000
    2    1   -2    2    3   -0.000852   -0.000000
    2    1   -2    3    3   -0.001772   -0.000000
    2    1   -2    4    3    0.003611   -0.000000
    2    1   -2    1    4    0.000868   -0.000000
    2    1   -2    2    4   -0.000852    0.000000
    2    1   -2    3    4    0.003611   -0.000000
    2    1   -2    4    4   -0.001772    0.000000
    2    1   -1    1    1    0.001914   -0.000000
    2    1   -1    2    1   -0.000852    0.000000
    2    1   -1    3    1   -0.000986   -0.000000
    2    1   -1    4    1   -0.000852    0.000000
    2    1   -1    1    2    0.000868    0.000000
    2    1   -1    2    2   -0.001772   -0.000000
    2    1   -1    3    2   -0.000852   -0.000000
    2    1   -1    4    2    0.003611    0.000000
    2    1   -1    1    3   -0.001876   -0.000000
    2    1   -1    2    3    0.000868    0.000000
    2    1   -1    3    3    0.001914   -0.000000
    2    1   -1    4    3    0.000868   -0.000000
    2    1   -1    1    4    0.000868   -0.000000
    2    1   -1    2    4    0.003611   -0.000000
    2    1   -1    3    4   -0.000852   -0.000000
    2    1   -1    4    4   -0.001772    0.000000
    2    2   -2    1    1    0.003167   -0.000000
    2    2   -2    2    1   -0.000986   -0.000000
    2    2   -2    3    1   -0.000986   -0.000000
    2    2   -2    4    1   -0.000986   -0.000000
    2    2   -2    1    2   -0.000986    0.000000
    2    2   -2    2    2    0.003167   -0.000000
    2    2   -2    3    2   -0.000986   -0.000000
    2    2   -2    4    2   -0.000986    0.000000
    2    2   -2    1    3   -0.000986    0.000000
    2    2   -2    2    3   -0.000986    0.000000
    2    2   -2    3    3    0.003167   -0.000000
    2    2   -2    4    3   -0.000986    0.000000
    2    2   -2    1    4   -0.000986    0.000000
    2    2   -2    2    4   -0.000986   -0.000000
    2    2   -2    3    4   -0.000986   -0.000000
    2    2   -2    4    4    0.003167    0.000000
    3   -1   -1    1    1    0.005486    0.000000
    3   -1   -1    2    1   -0.001435    0.000000
    3   -1   -1    3    1   -0.001435    0.000000
    3   -1   -1    4    1   -0.001435   -0.000000
    3   -1   -1    1    2   -0.001435    0.000000
    3   -1   -1    2    2    0.005486    0.000000
    3   -1   -1    3    2   -0.001435   -0.000000
    3   -1   -1    4    2   -0.001435   -0.000000
    3   -1   -1    1    3   -0.001435   -0.000000
    3   -1   -1    2    3   -0.001435   -0.000000
    3   -1   -1    3    3    0.005486   -0.000000
    3   -1   -1    4    3   -0.001435   -0.000000
    3   -1   -1    1    4   -0.001435    0.000000
    3   -1   -1    2    4   -0.001435    0.000000
    3   -1   -1    3    4   -0.001435   -0.000000
    3   -1   -1    4    4    0.005486    0.000000
