 
             +---------------------------------------------------+
             |                                                   |
             |                   WANNIER90                       |
             |                                                   |
             +---------------------------------------------------+
             |                                                   |
             |        Welcome to the Maximally-Localized         |
             |        Generalized Wannier Functions code         |
             |            http://www.wannier.org                 |
             |                                                   |
             |                                                   |
             |  Wannier90 Developer Group:                       |
             |    Giovanni Pizzi    (EPFL)                       |
             |    Valerio Vitale    (Cambridge)                  |
             |    David Vanderbilt  (Rutgers University)         |
             |    Nicola Marzari    (EPFL)                       |
             |    Ivo Souza         (Universidad del Pais Vasco) |
             |    Arash A. Mostofi  (Imperial College London)    |
             |    Jonathan R. Yates (University of Oxford)       |
             |                                                   |
             |  For the full list of Wannier90 3.x authors,      |
             |  please check the code documentation and the      |
             |  README on the GitHub page of the code            |
             |                                                   |
             |                                                   |
             |  Please cite                                      |
             |                                                   |
             |  [ref] "Wannier90 as a community code:            |
             |        new features and applications",            |
             |        G. Pizzi et al., J. Phys. Cond. Matt. 32,  |
             |        165902 (2020).                             |
             |        http://doi.org/10.1088/1361-648X/ab51ff    |
             |                                                   |
             |  in any publications arising from the use of      |
             |  this code. For the method please cite            |
             |                                                   |
             |  [ref] "Maximally Localized Generalised Wannier   |
             |         Functions for Composite Energy Bands"     |
             |         N. Marzari and D. Vanderbilt              |
             |         Phys. Rev. B 56 12847 (1997)              |
             |                                                   |
             |  [ref] "Maximally Localized Wannier Functions     |
             |         for Entangled Energy Bands"               |
             |         I. Souza, N. Marzari and D. Vanderbilt    |
             |         Phys. Rev. B 65 035109 (2001)             |
             |                                                   |
             |                                                   |
             | Copyright (c) 1996-2020                           |
             |        The Wannier90 Developer Group and          |
             |        individual contributors                    |
             |                                                   |
             |      Release: 3.1.0        5th March    2020      |
             |                                                   |
             | This program is free software; you can            |
             | redistribute it and/or modify it under the terms  |
             | of the GNU General Public License as published by |
             | the Free Software Foundation; either version 2 of |
             | the License, or (at your option) any later version|
             |                                                   |
             | This program is distributed in the hope that it   |
             | will be useful, but WITHOUT ANY WARRANTY; without |
             | even the implied warranty of MERCHANTABILITY or   |
             | FITNESS FOR A PARTICULAR PURPOSE. See the GNU     |
             | General Public License for more details.          |
             |                                                   |
             | You should have received a copy of the GNU General|
             | Public License along with this program; if not,   |
             | write to the Free Software Foundation, Inc.,      |
             | 675 Mass Ave, Cambridge, MA 02139, USA.           |
             |                                                   |
             +---------------------------------------------------+
             |    Execution started on 15Apr2021 at 17:22:50     |
             +---------------------------------------------------+
 
 ******************************************************************************
 * -> Using CODATA 2006 constant values                                       *
 *    (http://physics.nist.gov/cuu/Constants/index.html)                      *
 * -> Using Bohr value from CODATA                                            *
 ******************************************************************************
 

 Running in serial (with serial executable)
 
                                    ------
                                    SYSTEM
                                    ------
 
                              Lattice Vectors (Ang)
                    a_1    -2.715500   0.000000   2.715500
                    a_2     0.000000   2.715500   2.715500
                    a_3    -2.715500   2.715500   0.000000
 
                   Unit Cell Volume:      40.04786  (Ang^3)
 
                        Reciprocal-Space Vectors (Ang^-1)
                    b_1    -1.156911  -1.156911   1.156911
                    b_2     1.156911   1.156911   1.156911
                    b_3    -1.156911   1.156911  -1.156911
  
 *----------------------------------------------------------------------------*
 |   Site       Fractional Coordinate          Cartesian Coordinate (Ang)     |
 +----------------------------------------------------------------------------+
 | Si   1   0.00000   0.00000   0.00000   |    0.00000   0.00000   0.00000    |
 | Si   2   0.25000   0.25000   0.25000   |   -1.35775   1.35775   1.35775    |
 *----------------------------------------------------------------------------*
                                ------------
                                K-POINT GRID
                                ------------
  
             Grid size =  2 x  2 x  2      Total points =    8
  
  
 *---------------------------------- MAIN ------------------------------------*
 |  Number of Wannier Functions               :                 4             |
 |  Number of Objective Wannier Functions     :                 4             |
 |  Number of input Bloch states              :                 4             |
 |  Output verbosity (1=low, 5=high)          :                 1             |
 |  Timing Level (1=low, 5=high)              :                 1             |
 |  Optimisation (0=memory, 3=speed)          :                 3             |
 |  Length Unit                               :               Ang             |
 |  Post-processing setup (write *.nnkp)      :                 F             |
 |  Using Gamma-only branch of algorithms     :                 F             |
 *----------------------------------------------------------------------------*
 *------------------------------- WANNIERISE ---------------------------------*
 |  Total number of iterations                :             10000             |
 |  Number of CG steps before reset           :                 5             |
 |  Trial step length for line search         :             2.000             |
 |  Convergence tolerence                     :         0.100E-09             |
 |  Convergence window                        :                 5             |
 |  Iterations between writing output         :                 1             |
 |  Iterations between backing up to disk     :               100             |
 |  Write r^2_nm to file                      :                 F             |
 |  Write xyz WF centres to file              :                 F             |
 |  Write on-site energies <0n|H|0n> to file  :                 F             |
 |  Use guiding centre to control phases      :                 T             |
 |  Use phases for initial projections        :                 F             |
 |  Iterations before starting guiding centres:                 0             |
 |  Iterations between using guiding centres  :                 1             |
 *----------------------------------------------------------------------------*
 *-------------------------------- PLOTTING ----------------------------------*
 |  Plotting Hamiltonian in WF basis          :                 T             |
 *----------------------------------------------------------------------------*
 Time to read parameters        0.002 (sec)

 *---------------------------------- K-MESH ----------------------------------*
 +----------------------------------------------------------------------------+
 |                    Distance to Nearest-Neighbour Shells                    |
 |                    ------------------------------------                    |
 |          Shell             Distance (Ang^-1)          Multiplicity         |
 |          -----             -----------------          ------------         |
 |             1                   1.001915                      8            |
 |             2                   1.156911                      6            |
 |             3                   1.636120                     12            |
 |             4                   1.918520                     24            |
 |             5                   2.003829                      8            |
 |             6                   2.313823                      6            |
 |             7                   2.521430                     24            |
 |             8                   2.586932                     24            |
 |             9                   2.833843                     24            |
 |            10                   3.005744                     32            |
 |            11                   3.272240                     12            |
 |            12                   3.422190                     48            |
 |            13                   3.470734                     30            |
 |            14                   3.658475                     24            |
 |            15                   3.793188                     24            |
 |            16                   3.837041                     24            |
 |            17                   4.007659                      8            |
 |            18                   4.131000                     48            |
 |            19                   4.171303                     24            |
 |            20                   4.328766                     48            |
 |            21                   4.443202                     72            |
 |            22                   4.627646                      6            |
 |            23                   4.734864                     24            |
 |            24                   4.770068                     48            |
 |            25                   4.908359                     36            |
 |            26                   5.009573                     56            |
 |            27                   5.042860                     24            |
 |            28                   5.173865                     24            |
 |            29                   5.269982                     72            |
 |            30                   5.301634                     48            |
 |            31                   5.426395                     24            |
 |            32                   5.518116                     48            |
 |            33                   5.667685                     24            |
 |            34                   5.755561                     72            |
 |            35                   5.784557                     30            |
 |            36                   5.899114                     72            |
 +----------------------------------------------------------------------------+
 | The b-vectors are chosen automatically                                     |
 | The following shells are used:   1                                         |
 +----------------------------------------------------------------------------+
 |                        Shell   # Nearest-Neighbours                        |
 |                        -----   --------------------                        |
 |                          1               8                                 |
 +----------------------------------------------------------------------------+
 | Completeness relation is fully satisfied [Eq. (B1), PRB 56, 12847 (1997)]  |
 +----------------------------------------------------------------------------+
 |                  b_k Vectors (Ang^-1) and Weights (Ang^2)                  |
 |                  ----------------------------------------                  |
 |            No.         b_k(x)      b_k(y)      b_k(z)        w_b           |
 |            ---        --------------------------------     --------        |
 |             1         0.578456   -0.578456    0.578456     0.373568        |
 |             2        -0.578456   -0.578456   -0.578456     0.373568        |
 |             3         0.578456    0.578456   -0.578456     0.373568        |
 |             4         0.578456   -0.578456   -0.578456     0.373568        |
 |             5        -0.578456    0.578456    0.578456     0.373568        |
 |             6        -0.578456   -0.578456    0.578456     0.373568        |
 |             7         0.578456    0.578456    0.578456     0.373568        |
 |             8        -0.578456    0.578456   -0.578456     0.373568        |
 +----------------------------------------------------------------------------+
 |                           b_k Directions (Ang^-1)                          |
 |                           -----------------------                          |
 |            No.           x           y           z                         |
 |            ---        --------------------------------                     |
 |             1         0.578456   -0.578456    0.578456                     |
 |             2        -0.578456   -0.578456   -0.578456                     |
 |             3         0.578456    0.578456   -0.578456                     |
 |             4         0.578456   -0.578456   -0.578456                     |
 +----------------------------------------------------------------------------+
  
 Time to get kmesh              0.009 (sec)
 *============================================================================*
 |                              MEMORY ESTIMATE                               |
 |         Maximum RAM allocated during each phase of the calculation         |
 *============================================================================*
 |                            Wannierise:            0.06 Mb                  |
 |                          plot_wannier:            0.06 Mb                  |
 *----------------------------------------------------------------------------*
  
 Starting a new Wannier90 calculation ...


 Reading overlaps from wann.mmn    :  Created on 15Apr2021 at 17:22:50

 Reading projections from wann.amn :  Created on 15Apr2021 at 17:22:50

 Time to read overlaps          0.001 (sec)

 done

 
 *------------------------------- WANNIERISE ---------------------------------*
 +--------------------------------------------------------------------+<-- CONV
 | Iter  Delta Spread     RMS Gradient      Spread (Ang^2)      Time  |<-- CONV
 +--------------------------------------------------------------------+<-- CONV
 
 ------------------------------------------------------------------------------
 Initial State
  WF centre and spread    1  ( -0.678959,  2.036541,  2.036541 )     1.02246684
  WF centre and spread    2  ( -0.678959,  0.678959,  0.678959 )     1.02246684
  WF centre and spread    3  ( -2.036541,  2.036541,  0.678959 )     1.02246685
  WF centre and spread    4  ( -2.036541,  0.678959,  2.036541 )     1.02246684
  Sum of centres and spreads ( -5.431000,  5.431000,  5.431000 )     4.08986737
 
      0     0.409E+01     0.0000000000        4.0898673679       0.00  <-- CONV
        O_D=      0.0002699 O_OD=      0.4084306 O_TOT=      4.0898674 <-- SPRD
 ------------------------------------------------------------------------------
 Cycle:      1
  WF centre and spread    1  ( -0.678875,  2.036625,  2.036625 )     1.01746772
  WF centre and spread    2  ( -0.678875,  0.678875,  0.678875 )     1.01746772
  WF centre and spread    3  ( -2.036625,  2.036625,  0.678875 )     1.01746772
  WF centre and spread    4  ( -2.036625,  0.678875,  2.036625 )     1.01746772
  Sum of centres and spreads ( -5.431000,  5.431000,  5.431000 )     4.06987087
 
      1    -0.200E-01     0.2055044585        4.0698708720       0.00  <-- CONV
        O_D=      0.0000000 O_OD=      0.3887040 O_TOT=      4.0698709 <-- SPRD
 Delta: O_D= -0.2699299E-03 O_OD= -0.1972657E-01 O_TOT= -0.1999650E-01 <-- DLTA
 ------------------------------------------------------------------------------
 Cycle:      2
  WF centre and spread    1  ( -0.678875,  2.036625,  2.036625 )     1.01746764
  WF centre and spread    2  ( -0.678875,  0.678875,  0.678875 )     1.01746764
  WF centre and spread    3  ( -2.036625,  2.036625,  0.678875 )     1.01746764
  WF centre and spread    4  ( -2.036625,  0.678875,  2.036625 )     1.01746764
  Sum of centres and spreads ( -5.431000,  5.431000,  5.431000 )     4.06987057
 
      2    -0.303E-06     0.0008007465        4.0698705694       0.00  <-- CONV
        O_D=      0.0000000 O_OD=      0.3887037 O_TOT=      4.0698706 <-- SPRD
 Delta: O_D= -0.4078116E-08 O_OD= -0.2984674E-06 O_TOT= -0.3025456E-06 <-- DLTA
 ------------------------------------------------------------------------------
 Cycle:      3
  WF centre and spread    1  ( -0.678875,  2.036625,  2.036625 )     1.01746764
  WF centre and spread    2  ( -0.678875,  0.678875,  0.678875 )     1.01746764
  WF centre and spread    3  ( -2.036625,  2.036625,  0.678875 )     1.01746764
  WF centre and spread    4  ( -2.036625,  0.678875,  2.036625 )     1.01746764
  Sum of centres and spreads ( -5.431000,  5.431000,  5.431000 )     4.06987057
 
      3    -0.355E-14     0.0000001487        4.0698705694       0.00  <-- CONV
        O_D=      0.0000000 O_OD=      0.3887037 O_TOT=      4.0698706 <-- SPRD
 Delta: O_D= -0.2710419E-14 O_OD= -0.3330669E-15 O_TOT= -0.3552714E-14 <-- DLTA
 ------------------------------------------------------------------------------
 Cycle:      4
  WF centre and spread    1  ( -0.678875,  2.036625,  2.036625 )     1.01746764
  WF centre and spread    2  ( -0.678875,  0.678875,  0.678875 )     1.01746764
  WF centre and spread    3  ( -2.036625,  2.036625,  0.678875 )     1.01746764
  WF centre and spread    4  ( -2.036625,  0.678875,  2.036625 )     1.01746764
  Sum of centres and spreads ( -5.431000,  5.431000,  5.431000 )     4.06987057
 
      4    -0.888E-15     0.0000000747        4.0698705694       0.00  <-- CONV
        O_D=      0.0000000 O_OD=      0.3887037 O_TOT=      4.0698706 <-- SPRD
 Delta: O_D= -0.8405279E-15 O_OD= -0.4996004E-15 O_TOT= -0.8881784E-15 <-- DLTA
 ------------------------------------------------------------------------------
 Cycle:      5
  WF centre and spread    1  ( -0.678875,  2.036625,  2.036625 )     1.01746764
  WF centre and spread    2  ( -0.678875,  0.678875,  0.678875 )     1.01746764
  WF centre and spread    3  ( -2.036625,  2.036625,  0.678875 )     1.01746764
  WF centre and spread    4  ( -2.036625,  0.678875,  2.036625 )     1.01746764
  Sum of centres and spreads ( -5.431000,  5.431000,  5.431000 )     4.06987057
 
      5    -0.888E-15     0.0000000207        4.0698705694       0.00  <-- CONV
        O_D=      0.0000000 O_OD=      0.3887037 O_TOT=      4.0698706 <-- SPRD
 Delta: O_D= -0.3962096E-17 O_OD= -0.4996004E-15 O_TOT= -0.8881784E-15 <-- DLTA
 ------------------------------------------------------------------------------
 Cycle:      6
  WF centre and spread    1  ( -0.678875,  2.036625,  2.036625 )     1.01746764
  WF centre and spread    2  ( -0.678875,  0.678875,  0.678875 )     1.01746764
  WF centre and spread    3  ( -2.036625,  2.036625,  0.678875 )     1.01746764
  WF centre and spread    4  ( -2.036625,  0.678875,  2.036625 )     1.01746764
  Sum of centres and spreads ( -5.431000,  5.431000,  5.431000 )     4.06987057
 
      6     0.888E-15     0.0000000200        4.0698705694       0.00  <-- CONV
        O_D=      0.0000000 O_OD=      0.3887037 O_TOT=      4.0698706 <-- SPRD
 Delta: O_D= -0.8944021E-17 O_OD=  0.3330669E-15 O_TOT=  0.8881784E-15 <-- DLTA
 ------------------------------------------------------------------------------
 Cycle:      7
  WF centre and spread    1  ( -0.678875,  2.036625,  2.036625 )     1.01746764
  WF centre and spread    2  ( -0.678875,  0.678875,  0.678875 )     1.01746764
  WF centre and spread    3  ( -2.036625,  2.036625,  0.678875 )     1.01746764
  WF centre and spread    4  ( -2.036625,  0.678875,  2.036625 )     1.01746764
  Sum of centres and spreads ( -5.431000,  5.431000,  5.431000 )     4.06987057
 
      7     0.000E+00     0.0000000186        4.0698705694       0.00  <-- CONV
        O_D=      0.0000000 O_OD=      0.3887037 O_TOT=      4.0698706 <-- SPRD
 Delta: O_D= -0.3236256E-16 O_OD=  0.3885781E-15 O_TOT=  0.0000000E+00 <-- DLTA
 ------------------------------------------------------------------------------

             <<<     Delta < 1.000E-10  over  5 iterations     >>>
             <<< Wannierisation convergence criteria satisfied >>>

 Final State
  WF centre and spread    1  ( -0.678875,  2.036625,  2.036625 )     1.01746764
  WF centre and spread    2  ( -0.678875,  0.678875,  0.678875 )     1.01746764
  WF centre and spread    3  ( -2.036625,  2.036625,  0.678875 )     1.01746764
  WF centre and spread    4  ( -2.036625,  0.678875,  2.036625 )     1.01746764
  Sum of centres and spreads ( -5.431000,  5.431000,  5.431000 )     4.06987057
 
         Spreads (Ang^2)       Omega I      =     3.681166826
        ================       Omega D      =     0.000000000
                               Omega OD     =     0.388703743
    Final Spread (Ang^2)       Omega Total  =     4.069870569
 ------------------------------------------------------------------------------
 Time for wannierise            0.002 (sec)

 done

 *---------------------------------------------------------------------------*
 |                               PLOTTING                                    |
 *---------------------------------------------------------------------------*
 
 Time for plotting              0.007 (sec)
 Total Execution Time           0.021 (sec)

 *===========================================================================*
 |                             TIMING INFORMATION                            |
 *===========================================================================*
 |    Tag                                                Ncalls      Time (s)|
 |---------------------------------------------------------------------------|
 |kmesh: get                                        :         1         0.009|
 |overlap: allocate                                 :         1         0.000|
 |overlap: read                                     :         1         0.001|
 |wann: main                                        :         1         0.002|
 |plot: main                                        :         1         0.007|
 *---------------------------------------------------------------------------*
 
 All done: wannier90 exiting
