<UPF version="2.0.1">
  <PP_INFO>

 Al_ONCV_PBE-1.2.upf

 This pseudopotential file has been produced using the code
 ONCVPSP  (Optimized Norm-Conservinng Vanderbilt PSeudopotential)
 scalar-relativistic version 2.1.1, 03/26/2014 by D. R. Hamann
 The code is available through a link at URL www.mat-simresearch.com.
 Documentation with the package provides a full discription of the
 input data below.


 While it is not required under the terms of the GNU GPL, it is
 suggested that you cite D. R. Hamann, Phys. Rev. B 88, 085117 (2013)
 in any publication using these pseudopotentials.


 Copyright 2015 The Regents of the University of California
 
 This work is licensed under the Creative Commons Attribution-ShareAlike 
 4.0 International License. To view a copy of this license, visit 
 http://creativecommons.org/licenses/by-sa/4.0/ or send a letter to 
 Creative Commons, PO Box 1866, Mountain View, CA 94042, USA.
 
 This pseudopotential is part of the Schlipf-Gygi norm-conserving 
 pseudopotential library. Its construction parameters were tuned to 
 reproduce materials of a training set with very high accuracy and 
 should be suitable as a general purpose pseudopotential to treat a 
 variety of different compounds. For details of the construction and 
 testing of the pseudopotential please refer to:
 
   M. Schlipf and F. Gygi, Computer Physics Communications (2015)
   DOI: 10.1016/j.cpc.2015.05.011
   http://dx.doi.org/10.1016/j.cpc.2015.05.011
   http://www.quantum-simulation.org
 
 We kindly ask that you include this reference in all publications 
 associated to this pseudopotential.


    <PP_INPUTFILE>
# ATOM AND REFERENCE CONFIGURATION
# atsym  z    nc    nv    iexc   psfile
  Al 13.00     1     4     4      upf
#
#   n    l    f        energy (Ha)
    1    0    2.00
    2    0    2.00
    2    1    6.00
    3    0    2.00
    3    1    1.00
#
# PSEUDOPOTENTIAL AND OPTIMIZATION
# lmax
    1
#
#   l,   rc,     ep,   ncon, nbas, qcut
    0   1.29657  -3.97500    5    8  10.30030
    1   2.41091  -2.55934    5    8   7.02214
#
# LOCAL POTENTIAL
# lloc, lpopt,  rc(5),   dvloc0
    4    5   0.93955      0.00000
#
# VANDERBILT-KLEINMAN-BYLANDER PROJECTORs
# l, nproj, debl
    0    2   3.69008
    1    2   2.45967
#
# MODEL CORE CHARGE
# icmod, fcfact
    0   0.00000
#
# LOG DERIVATIVE ANALYSIS
# epsh1, epsh2, depsh
   -5.00    3.00    0.02
#
# OUTPUT GRID
# rlmax, drl
    6.00    0.01
#
# TEST CONFIGURATIONS
# ncnf
    0
# nvcnf
#   n    l    f
    </PP_INPUTFILE>
  </PP_INFO>
  <!--                               -->
  <!-- END OF HUMAN READABLE SECTION -->
  <!--                               -->
    <PP_HEADER
       generated="Generated using ONCVPSP code by D. R. Hamann"
       author="Martin Schlipf and Francois Gygi"
       date="150105"
       comment=""
       element="Al"
       pseudo_type="NC"
       relativistic="scalar"
       is_ultrasoft="F"
       is_paw="F"
       is_coulomb="F"
       has_so="F"
       has_wfc="F"
       has_gipaw="F"
       core_correction="F"
       functional="PBE"
       z_valence="   11.00"
       total_psenergy="  -6.90690753360E+01"
       rho_cutoff="   6.01000000000E+00"
       l_max="1"
       l_local="-1"
       mesh_size="   602"
       number_of_wfc="0"
       number_of_proj="4"/>
 <PP_MESH>
   <PP_R type="real"  size=" 602" columns="8">
    0.0000    0.0100    0.0200    0.0300    0.0400    0.0500    0.0600    0.0700
    0.0800    0.0900    0.1000    0.1100    0.1200    0.1300    0.1400    0.1500
    0.1600    0.1700    0.1800    0.1900    0.2000    0.2100    0.2200    0.2300
    0.2400    0.2500    0.2600    0.2700    0.2800    0.2900    0.3000    0.3100
    0.3200    0.3300    0.3400    0.3500    0.3600    0.3700    0.3800    0.3900
    0.4000    0.4100    0.4200    0.4300    0.4400    0.4500    0.4600    0.4700
    0.4800    0.4900    0.5000    0.5100    0.5200    0.5300    0.5400    0.5500
    0.5600    0.5700    0.5800    0.5900    0.6000    0.6100    0.6200    0.6300
    0.6400    0.6500    0.6600    0.6700    0.6800    0.6900    0.7000    0.7100
    0.7200    0.7300    0.7400    0.7500    0.7600    0.7700    0.7800    0.7900
    0.8000    0.8100    0.8200    0.8300    0.8400    0.8500    0.8600    0.8700
    0.8800    0.8900    0.9000    0.9100    0.9200    0.9300    0.9400    0.9500
    0.9600    0.9700    0.9800    0.9900    1.0000    1.0100    1.0200    1.0300
    1.0400    1.0500    1.0600    1.0700    1.0800    1.0900    1.1000    1.1100
    1.1200    1.1300    1.1400    1.1500    1.1600    1.1700    1.1800    1.1900
    1.2000    1.2100    1.2200    1.2300    1.2400    1.2500    1.2600    1.2700
    1.2800    1.2900    1.3000    1.3100    1.3200    1.3300    1.3400    1.3500
    1.3600    1.3700    1.3800    1.3900    1.4000    1.4100    1.4200    1.4300
    1.4400    1.4500    1.4600    1.4700    1.4800    1.4900    1.5000    1.5100
    1.5200    1.5300    1.5400    1.5500    1.5600    1.5700    1.5800    1.5900
    1.6000    1.6100    1.6200    1.6300    1.6400    1.6500    1.6600    1.6700
    1.6800    1.6900    1.7000    1.7100    1.7200    1.7300    1.7400    1.7500
    1.7600    1.7700    1.7800    1.7900    1.8000    1.8100    1.8200    1.8300
    1.8400    1.8500    1.8600    1.8700    1.8800    1.8900    1.9000    1.9100
    1.9200    1.9300    1.9400    1.9500    1.9600    1.9700    1.9800    1.9900
    2.0000    2.0100    2.0200    2.0300    2.0400    2.0500    2.0600    2.0700
    2.0800    2.0900    2.1000    2.1100    2.1200    2.1300    2.1400    2.1500
    2.1600    2.1700    2.1800    2.1900    2.2000    2.2100    2.2200    2.2300
    2.2400    2.2500    2.2600    2.2700    2.2800    2.2900    2.3000    2.3100
    2.3200    2.3300    2.3400    2.3500    2.3600    2.3700    2.3800    2.3900
    2.4000    2.4100    2.4200    2.4300    2.4400    2.4500    2.4600    2.4700
    2.4800    2.4900    2.5000    2.5100    2.5200    2.5300    2.5400    2.5500
    2.5600    2.5700    2.5800    2.5900    2.6000    2.6100    2.6200    2.6300
    2.6400    2.6500    2.6600    2.6700    2.6800    2.6900    2.7000    2.7100
    2.7200    2.7300    2.7400    2.7500    2.7600    2.7700    2.7800    2.7900
    2.8000    2.8100    2.8200    2.8300    2.8400    2.8500    2.8600    2.8700
    2.8800    2.8900    2.9000    2.9100    2.9200    2.9300    2.9400    2.9500
    2.9600    2.9700    2.9800    2.9900    3.0000    3.0100    3.0200    3.0300
    3.0400    3.0500    3.0600    3.0700    3.0800    3.0900    3.1000    3.1100
    3.1200    3.1300    3.1400    3.1500    3.1600    3.1700    3.1800    3.1900
    3.2000    3.2100    3.2200    3.2300    3.2400    3.2500    3.2600    3.2700
    3.2800    3.2900    3.3000    3.3100    3.3200    3.3300    3.3400    3.3500
    3.3600    3.3700    3.3800    3.3900    3.4000    3.4100    3.4200    3.4300
    3.4400    3.4500    3.4600    3.4700    3.4800    3.4900    3.5000    3.5100
    3.5200    3.5300    3.5400    3.5500    3.5600    3.5700    3.5800    3.5900
    3.6000    3.6100    3.6200    3.6300    3.6400    3.6500    3.6600    3.6700
    3.6800    3.6900    3.7000    3.7100    3.7200    3.7300    3.7400    3.7500
    3.7600    3.7700    3.7800    3.7900    3.8000    3.8100    3.8200    3.8300
    3.8400    3.8500    3.8600    3.8700    3.8800    3.8900    3.9000    3.9100
    3.9200    3.9300    3.9400    3.9500    3.9600    3.9700    3.9800    3.9900
    4.0000    4.0100    4.0200    4.0300    4.0400    4.0500    4.0600    4.0700
    4.0800    4.0900    4.1000    4.1100    4.1200    4.1300    4.1400    4.1500
    4.1600    4.1700    4.1800    4.1900    4.2000    4.2100    4.2200    4.2300
    4.2400    4.2500    4.2600    4.2700    4.2800    4.2900    4.3000    4.3100
    4.3200    4.3300    4.3400    4.3500    4.3600    4.3700    4.3800    4.3900
    4.4000    4.4100    4.4200    4.4300    4.4400    4.4500    4.4600    4.4700
    4.4800    4.4900    4.5000    4.5100    4.5200    4.5300    4.5400    4.5500
    4.5600    4.5700    4.5800    4.5900    4.6000    4.6100    4.6200    4.6300
    4.6400    4.6500    4.6600    4.6700    4.6800    4.6900    4.7000    4.7100
    4.7200    4.7300    4.7400    4.7500    4.7600    4.7700    4.7800    4.7900
    4.8000    4.8100    4.8200    4.8300    4.8400    4.8500    4.8600    4.8700
    4.8800    4.8900    4.9000    4.9100    4.9200    4.9300    4.9400    4.9500
    4.9600    4.9700    4.9800    4.9900    5.0000    5.0100    5.0200    5.0300
    5.0400    5.0500    5.0600    5.0700    5.0800    5.0900    5.1000    5.1100
    5.1200    5.1300    5.1400    5.1500    5.1600    5.1700    5.1800    5.1900
    5.2000    5.2100    5.2200    5.2300    5.2400    5.2500    5.2600    5.2700
    5.2800    5.2900    5.3000    5.3100    5.3200    5.3300    5.3400    5.3500
    5.3600    5.3700    5.3800    5.3900    5.4000    5.4100    5.4200    5.4300
    5.4400    5.4500    5.4600    5.4700    5.4800    5.4900    5.5000    5.5100
    5.5200    5.5300    5.5400    5.5500    5.5600    5.5700    5.5800    5.5900
    5.6000    5.6100    5.6200    5.6300    5.6400    5.6500    5.6600    5.6700
    5.6800    5.6900    5.7000    5.7100    5.7200    5.7300    5.7400    5.7500
    5.7600    5.7700    5.7800    5.7900    5.8000    5.8100    5.8200    5.8300
    5.8400    5.8500    5.8600    5.8700    5.8800    5.8900    5.9000    5.9100
    5.9200    5.9300    5.9400    5.9500    5.9600    5.9700    5.9800    5.9900
    6.0000    6.0100
   </PP_R>
   <PP_RAB type="real"  size=" 602" columns="8">
    0.0100    0.0100    0.0100    0.0100    0.0100    0.0100    0.0100    0.0100
    0.0100    0.0100    0.0100    0.0100    0.0100    0.0100    0.0100    0.0100
    0.0100    0.0100    0.0100    0.0100    0.0100    0.0100    0.0100    0.0100
    0.0100    0.0100    0.0100    0.0100    0.0100    0.0100    0.0100    0.0100
    0.0100    0.0100    0.0100    0.0100    0.0100    0.0100    0.0100    0.0100
    0.0100    0.0100    0.0100    0.0100    0.0100    0.0100    0.0100    0.0100
    0.0100    0.0100    0.0100    0.0100    0.0100    0.0100    0.0100    0.0100
    0.0100    0.0100    0.0100    0.0100    0.0100    0.0100    0.0100    0.0100
    0.0100    0.0100    0.0100    0.0100    0.0100    0.0100    0.0100    0.0100
    0.0100    0.0100    0.0100    0.0100    0.0100    0.0100    0.0100    0.0100
    0.0100    0.0100    0.0100    0.0100    0.0100    0.0100    0.0100    0.0100
    0.0100    0.0100    0.0100    0.0100    0.0100    0.0100    0.0100    0.0100
    0.0100    0.0100    0.0100    0.0100    0.0100    0.0100    0.0100    0.0100
    0.0100    0.0100    0.0100    0.0100    0.0100    0.0100    0.0100    0.0100
    0.0100    0.0100    0.0100    0.0100    0.0100    0.0100    0.0100    0.0100
    0.0100    0.0100    0.0100    0.0100    0.0100    0.0100    0.0100    0.0100
    0.0100    0.0100    0.0100    0.0100    0.0100    0.0100    0.0100    0.0100
    0.0100    0.0100    0.0100    0.0100    0.0100    0.0100    0.0100    0.0100
    0.0100    0.0100    0.0100    0.0100    0.0100    0.0100    0.0100    0.0100
    0.0100    0.0100    0.0100    0.0100    0.0100    0.0100    0.0100    0.0100
    0.0100    0.0100    0.0100    0.0100    0.0100    0.0100    0.0100    0.0100
    0.0100    0.0100    0.0100    0.0100    0.0100    0.0100    0.0100    0.0100
    0.0100    0.0100    0.0100    0.0100    0.0100    0.0100    0.0100    0.0100
    0.0100    0.0100    0.0100    0.0100    0.0100    0.0100    0.0100    0.0100
    0.0100    0.0100    0.0100    0.0100    0.0100    0.0100    0.0100    0.0100
    0.0100    0.0100    0.0100    0.0100    0.0100    0.0100    0.0100    0.0100
    0.0100    0.0100    0.0100    0.0100    0.0100    0.0100    0.0100    0.0100
    0.0100    0.0100    0.0100    0.0100    0.0100    0.0100    0.0100    0.0100
    0.0100    0.0100    0.0100    0.0100    0.0100    0.0100    0.0100    0.0100
    0.0100    0.0100    0.0100    0.0100    0.0100    0.0100    0.0100    0.0100
    0.0100    0.0100    0.0100    0.0100    0.0100    0.0100    0.0100    0.0100
    0.0100    0.0100    0.0100    0.0100    0.0100    0.0100    0.0100    0.0100
    0.0100    0.0100    0.0100    0.0100    0.0100    0.0100    0.0100    0.0100
    0.0100    0.0100    0.0100    0.0100    0.0100    0.0100    0.0100    0.0100
    0.0100    0.0100    0.0100    0.0100    0.0100    0.0100    0.0100    0.0100
    0.0100    0.0100    0.0100    0.0100    0.0100    0.0100    0.0100    0.0100
    0.0100    0.0100    0.0100    0.0100    0.0100    0.0100    0.0100    0.0100
    0.0100    0.0100    0.0100    0.0100    0.0100    0.0100    0.0100    0.0100
    0.0100    0.0100    0.0100    0.0100    0.0100    0.0100    0.0100    0.0100
    0.0100    0.0100    0.0100    0.0100    0.0100    0.0100    0.0100    0.0100
    0.0100    0.0100    0.0100    0.0100    0.0100    0.0100    0.0100    0.0100
    0.0100    0.0100    0.0100    0.0100    0.0100    0.0100    0.0100    0.0100
    0.0100    0.0100    0.0100    0.0100    0.0100    0.0100    0.0100    0.0100
    0.0100    0.0100    0.0100    0.0100    0.0100    0.0100    0.0100    0.0100
    0.0100    0.0100    0.0100    0.0100    0.0100    0.0100    0.0100    0.0100
    0.0100    0.0100    0.0100    0.0100    0.0100    0.0100    0.0100    0.0100
    0.0100    0.0100    0.0100    0.0100    0.0100    0.0100    0.0100    0.0100
    0.0100    0.0100    0.0100    0.0100    0.0100    0.0100    0.0100    0.0100
    0.0100    0.0100    0.0100    0.0100    0.0100    0.0100    0.0100    0.0100
    0.0100    0.0100    0.0100    0.0100    0.0100    0.0100    0.0100    0.0100
    0.0100    0.0100    0.0100    0.0100    0.0100    0.0100    0.0100    0.0100
    0.0100    0.0100    0.0100    0.0100    0.0100    0.0100    0.0100    0.0100
    0.0100    0.0100    0.0100    0.0100    0.0100    0.0100    0.0100    0.0100
    0.0100    0.0100    0.0100    0.0100    0.0100    0.0100    0.0100    0.0100
    0.0100    0.0100    0.0100    0.0100    0.0100    0.0100    0.0100    0.0100
    0.0100    0.0100    0.0100    0.0100    0.0100    0.0100    0.0100    0.0100
    0.0100    0.0100    0.0100    0.0100    0.0100    0.0100    0.0100    0.0100
    0.0100    0.0100    0.0100    0.0100    0.0100    0.0100    0.0100    0.0100
    0.0100    0.0100    0.0100    0.0100    0.0100    0.0100    0.0100    0.0100
    0.0100    0.0100    0.0100    0.0100    0.0100    0.0100    0.0100    0.0100
    0.0100    0.0100    0.0100    0.0100    0.0100    0.0100    0.0100    0.0100
    0.0100    0.0100    0.0100    0.0100    0.0100    0.0100    0.0100    0.0100
    0.0100    0.0100    0.0100    0.0100    0.0100    0.0100    0.0100    0.0100
    0.0100    0.0100    0.0100    0.0100    0.0100    0.0100    0.0100    0.0100
    0.0100    0.0100    0.0100    0.0100    0.0100    0.0100    0.0100    0.0100
    0.0100    0.0100    0.0100    0.0100    0.0100    0.0100    0.0100    0.0100
    0.0100    0.0100    0.0100    0.0100    0.0100    0.0100    0.0100    0.0100
    0.0100    0.0100    0.0100    0.0100    0.0100    0.0100    0.0100    0.0100
    0.0100    0.0100    0.0100    0.0100    0.0100    0.0100    0.0100    0.0100
    0.0100    0.0100    0.0100    0.0100    0.0100    0.0100    0.0100    0.0100
    0.0100    0.0100    0.0100    0.0100    0.0100    0.0100    0.0100    0.0100
    0.0100    0.0100    0.0100    0.0100    0.0100    0.0100    0.0100    0.0100
    0.0100    0.0100    0.0100    0.0100    0.0100    0.0100    0.0100    0.0100
    0.0100    0.0100    0.0100    0.0100    0.0100    0.0100    0.0100    0.0100
    0.0100    0.0100    0.0100    0.0100    0.0100    0.0100    0.0100    0.0100
    0.0100    0.0100
   </PP_RAB>
 </PP_MESH>
  <PP_LOCAL type="real"  size=" 602" columns="4">
   -4.5793175075e+01   -4.5788448258e+01   -4.5774271311e+01   -4.5750654753e+01
   -4.5717616113e+01   -4.5675179930e+01   -4.5623377758e+01   -4.5562248160e+01
   -4.5491836712e+01   -4.5412196000e+01   -4.5323385623e+01   -4.5225472132e+01
   -4.5118528788e+01   -4.5002635589e+01   -4.4877879255e+01   -4.4744353169e+01
   -4.4602157309e+01   -4.4451398177e+01   -4.4292188720e+01   -4.4124648245e+01
   -4.3948902327e+01   -4.3765082717e+01   -4.3573327237e+01   -4.3373779671e+01
   -4.3166589651e+01   -4.2951912547e+01   -4.2729909330e+01   -4.2500746455e+01
   -4.2264595727e+01   -4.2021634162e+01   -4.1772043851e+01   -4.1516011824e+01
   -4.1253729894e+01   -4.0985394533e+01   -4.0711206709e+01   -4.0431371752e+01
   -4.0146099200e+01   -3.9855602666e+01   -3.9560099675e+01   -3.9259811534e+01
   -3.8954963181e+01   -3.8645783041e+01   -3.8332502872e+01   -3.8015357622e+01
   -3.7694585273e+01   -3.7370426682e+01   -3.7043125420e+01   -3.6712927591e+01
   -3.6380081658e+01   -3.6044838254e+01   -3.5707449960e+01   -3.5368171082e+01
   -3.5027257428e+01   -3.4684966035e+01   -3.4341554884e+01   -3.3997282619e+01
   -3.3652408207e+01   -3.3307190596e+01   -3.2961888362e+01   -3.2616759283e+01
   -3.2272059999e+01   -3.1928045476e+01   -3.1584968662e+01   -3.1243079972e+01
   -3.0902626759e+01   -3.0563852936e+01   -3.0226998404e+01   -2.9892298452e+01
   -2.9559983380e+01   -2.9230277982e+01   -2.8903400893e+01   -2.8579564063e+01
   -2.8258972337e+01   -2.7941822884e+01   -2.7628304667e+01   -2.7318598034e+01
   -2.7012873867e+01   -2.6711293357e+01   -2.6414007425e+01   -2.6121156194e+01
   -2.5832868475e+01   -2.5549261252e+01   -2.5270439163e+01   -2.4996493981e+01
   -2.4727504090e+01   -2.4463533948e+01   -2.4204633551e+01   -2.3950837873e+01
   -2.3702166308e+01   -2.3458622083e+01   -2.3220191664e+01   -2.2986844139e+01
   -2.2758530585e+01   -2.2535183375e+01   -2.2316715573e+01   -2.2103021768e+01
   -2.1893987279e+01   -2.1689498489e+01   -2.1489442457e+01   -2.1293706326e+01
   -2.1102176634e+01   -2.0914738702e+01   -2.0731276196e+01   -2.0551670390e+01
   -2.0375799754e+01   -2.0203539748e+01   -2.0034762549e+01   -1.9869337083e+01
   -1.9707128683e+01   -1.9547999147e+01   -1.9391807463e+01   -1.9238410108e+01
   -1.9087661528e+01   -1.8939414588e+01   -1.8793522086e+01   -1.8649837370e+01
   -1.8508214910e+01   -1.8368512890e+01   -1.8230593513e+01   -1.8094323159e+01
   -1.7959575768e+01   -1.7826233921e+01   -1.7694187632e+01   -1.7563336319e+01
   -1.7433593958e+01   -1.7304883939e+01   -1.7177140271e+01   -1.7050316722e+01
   -1.6924377020e+01   -1.6799297378e+01   -1.6675076787e+01   -1.6551723315e+01
   -1.6429261334e+01   -1.6307737259e+01   -1.6187204514e+01   -1.6067738582e+01
   -1.5949430494e+01   -1.5832376776e+01   -1.5716700129e+01   -1.5602525316e+01
   -1.5489990378e+01   -1.5379242195e+01   -1.5270429836e+01   -1.5163707747e+01
   -1.5059226717e+01   -1.4957136513e+01   -1.4857570026e+01   -1.4760663767e+01
   -1.4666511197e+01   -1.4575211522e+01   -1.4486807710e+01   -1.4401324722e+01
   -1.4318744132e+01   -1.4238980817e+01   -1.4161938010e+01   -1.4087395431e+01
   -1.4015161855e+01   -1.3944887653e+01   -1.3876268641e+01   -1.3808878106e+01
   -1.3742319487e+01   -1.3676155917e+01   -1.3609972047e+01   -1.3543392863e+01
   -1.3476076459e+01   -1.3407777571e+01   -1.3338297766e+01   -1.3267560877e+01
   -1.3195533856e+01   -1.3122304307e+01   -1.3047978845e+01   -1.2972761216e+01
   -1.2896845774e+01   -1.2820482588e+01   -1.2743900257e+01   -1.2667329709e+01
   -1.2590993198e+01   -1.2515060914e+01   -1.2439723914e+01   -1.2365079394e+01
   -1.2291274968e+01   -1.2218347544e+01   -1.2146390771e+01   -1.2075410030e+01
   -1.2005443278e+01   -1.1936484441e+01   -1.1868531365e+01   -1.1801570383e+01
   -1.1735578217e+01   -1.1670534625e+01   -1.1606409500e+01   -1.1543176908e+01
   -1.1480807926e+01   -1.1419273524e+01   -1.1358547699e+01   -1.1298603110e+01
   -1.1239414754e+01   -1.1180959916e+01   -1.1123213929e+01   -1.1066158555e+01
   -1.1009771504e+01   -1.0954036114e+01   -1.0898934548e+01   -1.0844449966e+01
   -1.0790568699e+01   -1.0737274132e+01   -1.0684554834e+01   -1.0632397012e+01
   -1.0580788619e+01   -1.0529718843e+01   -1.0479175385e+01   -1.0429149053e+01
   -1.0379629099e+01   -1.0330605943e+01   -1.0282070767e+01   -1.0234013649e+01
   -1.0186426820e+01   -1.0139301497e+01   -1.0092629437e+01   -1.0046403192e+01
   -1.0000614450e+01   -9.9552562574e+00   -9.9103213175e+00   -9.8658021883e+00
   -9.8216925418e+00   -9.7779853200e+00   -9.7346741018e+00   -9.6917528630e+00
   -9.6492148919e+00   -9.6070546837e+00   -9.5652664266e+00   -9.5238440186e+00
   -9.4827825370e+00   -9.4420764134e+00   -9.4017203379e+00   -9.3617097175e+00
   -9.3220393177e+00   -9.2827045571e+00   -9.2437011572e+00   -9.2050242481e+00
   -9.1666698740e+00   -9.1286340414e+00   -9.0909123106e+00   -9.0535011176e+00
   -9.0163966698e+00   -8.9795949149e+00   -8.9430924504e+00   -8.9068856197e+00
   -8.8709706212e+00   -8.8353441902e+00   -8.8000028322e+00   -8.7649429429e+00
   -8.7301613994e+00   -8.6956548633e+00   -8.6614198846e+00   -8.6274535016e+00
   -8.5937525419e+00   -8.5603136998e+00   -8.5271341568e+00   -8.4942109030e+00
   -8.4615407433e+00   -8.4291210081e+00   -8.3969488321e+00   -8.3650211679e+00
   -8.3333354339e+00   -8.3018889174e+00   -8.2706787325e+00   -8.2397023489e+00
   -8.2089572110e+00   -8.1784405968e+00   -8.1481500047e+00   -8.1180830358e+00
   -8.0882371342e+00   -8.0586098070e+00   -8.0291988103e+00   -8.0000017559e+00
   -7.9710161441e+00   -7.9422398810e+00   -7.9136707096e+00   -7.8853062259e+00
   -7.8571443658e+00   -7.8291830147e+00   -7.8014199340e+00   -7.7738530065e+00
   -7.7464802780e+00   -7.7192996806e+00   -7.6923090311e+00   -7.6655065287e+00
   -7.6388902172e+00   -7.6124580244e+00   -7.5862081118e+00   -7.5601386729e+00
   -7.5342478061e+00   -7.5085335693e+00   -7.4829943156e+00   -7.4576282669e+00
   -7.4324335284e+00   -7.4074084470e+00   -7.3825513770e+00   -7.3578605956e+00
   -7.3333343157e+00   -7.3089710527e+00   -7.2847691902e+00   -7.2607270198e+00
   -7.2368429926e+00   -7.2131156354e+00   -7.1895434072e+00   -7.1661246255e+00
   -7.1428579503e+00   -7.1197419205e+00   -7.0967750240e+00   -7.0739557449e+00
   -7.0512827904e+00   -7.0287547599e+00   -7.0063701691e+00   -6.9841276710e+00
   -6.9620259959e+00   -6.9400638084e+00   -6.9182396593e+00   -6.8965523464e+00
   -6.8750006260e+00   -6.8535832250e+00   -6.8322987355e+00   -6.8111460762e+00
   -6.7901240341e+00   -6.7692313755e+00   -6.7484667982e+00   -6.7278292605e+00
   -6.7073176048e+00   -6.6869306406e+00   -6.6666671559e+00   -6.6465261477e+00
   -6.6265065128e+00   -6.6066071075e+00   -6.5868267918e+00   -6.5671646050e+00
   -6.5476194954e+00   -6.5281903708e+00   -6.5088761451e+00   -6.4896759038e+00
   -6.4705886441e+00   -6.4516133289e+00   -6.4327489098e+00   -6.4139945219e+00
   -6.3953492088e+00   -6.3768119923e+00   -6.3583818464e+00   -6.3400579585e+00
   -6.3218394170e+00   -6.3037253054e+00   -6.2857146065e+00   -6.2678065624e+00
   -6.2500003039e+00   -6.2322949620e+00   -6.2146895692e+00   -6.1971833707e+00
   -6.1797755553e+00   -6.1624652945e+00   -6.1452516893e+00   -6.1281339595e+00
   -6.1111113599e+00   -6.0941831004e+00   -6.0773483541e+00   -6.0606063040e+00
   -6.0439562720e+00   -6.0273975048e+00   -6.0109292492e+00   -5.9945506474e+00
   -5.9782610829e+00   -5.9620598393e+00   -5.9459461983e+00   -5.9299193785e+00
   -5.9139787003e+00   -5.8981235231e+00   -5.8823531622e+00   -5.8666669171e+00
   -5.8510640359e+00   -5.8355439529e+00   -5.8201060154e+00   -5.8047495705e+00
   -5.7894738992e+00   -5.7742783981e+00   -5.7591624809e+00   -5.7441255252e+00
   -5.7291668988e+00   -5.7142859036e+00   -5.6994820342e+00   -5.6847546971e+00
   -5.6701032988e+00   -5.6555271981e+00   -5.6410258128e+00   -5.6265986270e+00
   -5.6122450750e+00   -5.5979645910e+00   -5.5837565316e+00   -5.5696204135e+00
   -5.5555557140e+00   -5.5415618937e+00   -5.5276384028e+00   -5.5137846338e+00
   -5.5000001533e+00   -5.4862844471e+00   -5.4726370009e+00   -5.4590572697e+00
   -5.4455447177e+00   -5.4320989146e+00   -5.4187193700e+00   -5.4054055938e+00
   -5.3921570507e+00   -5.3789732622e+00   -5.3658538052e+00   -5.3527982121e+00
   -5.3398060155e+00   -5.3268766948e+00   -5.3140098151e+00   -5.3012049642e+00
   -5.2884616967e+00   -5.2757795668e+00   -5.2631580727e+00   -5.2505968098e+00
   -5.2380953817e+00   -5.2256533635e+00   -5.2132703304e+00   -5.2009458033e+00
   -5.1886793955e+00   -5.1764707305e+00   -5.1643194032e+00   -5.1522250085e+00
   -5.1401870938e+00   -5.1282052788e+00   -5.1162792108e+00   -5.1044085035e+00
   -5.0925927708e+00   -5.0808315898e+00   -5.0691245763e+00   -5.0574714045e+00
   -5.0458717063e+00   -5.0343251134e+00   -5.0228312366e+00   -5.0113896772e+00
   -5.0000001400e+00   -4.9886622737e+00   -4.9773757274e+00   -4.9661401487e+00
   -4.9549551157e+00   -4.9438203658e+00   -4.9327355642e+00   -4.9217003762e+00
   -4.9107144672e+00   -4.8997774511e+00   -4.8888890330e+00   -4.8780489159e+00
   -4.8672567807e+00   -4.8565123083e+00   -4.8458151563e+00   -4.8351649849e+00
   -4.8245615383e+00   -4.8140045122e+00   -4.8034936025e+00   -4.7930285048e+00
   -4.7826088542e+00   -4.7722344106e+00   -4.7619048927e+00   -4.7516200103e+00
   -4.7413794734e+00   -4.7311829666e+00   -4.7210301867e+00   -4.7109209003e+00
   -4.7008548308e+00   -4.6908317017e+00   -4.6808512365e+00   -4.6709131059e+00
   -4.6610170820e+00   -4.6511629151e+00   -4.6413503415e+00   -4.6315790976e+00
   -4.6218489098e+00   -4.6121594711e+00   -4.6025105849e+00   -4.5929019999e+00
   -4.5833334646e+00   -4.5738047277e+00   -4.5643155095e+00   -4.5548655562e+00
   -4.5454546636e+00   -4.5360825922e+00   -4.5267491023e+00   -4.5174539542e+00
   -4.5081968671e+00   -4.4989776284e+00   -4.4897960308e+00   -4.4806518458e+00
   -4.4715448449e+00   -4.4624747996e+00   -4.4534414324e+00   -4.4444445607e+00
   -4.4354839781e+00   -4.4265594668e+00   -4.4176708089e+00   -4.4088177866e+00
   -4.4000001296e+00   -4.3912176749e+00   -4.3824702213e+00   -4.3737575609e+00
   -4.3650794862e+00   -4.3564357893e+00   -4.3478262108e+00   -4.3392505977e+00
   -4.3307087577e+00   -4.3222004926e+00   -4.3137256045e+00   -4.3052838953e+00
   -4.2968751196e+00   -4.2884991254e+00   -4.2801557329e+00   -4.2718447532e+00
   -4.2635659975e+00   -4.2553192771e+00   -4.2471043640e+00   -4.2389210984e+00
   -4.2307693165e+00   -4.2226488383e+00   -4.2145594838e+00   -4.2065010729e+00
   -4.1984733984e+00   -4.1904762847e+00   -4.1825095871e+00   -4.1745731339e+00
   -4.1666667536e+00   -4.1587902745e+00   -4.1509435132e+00   -4.1431262707e+00
   -4.1353384242e+00   -4.1275798099e+00   -4.1198502644e+00   -4.1121496240e+00
   -4.1044777250e+00   -4.0968343597e+00   -4.0892194079e+00   -4.0816327208e+00
   -4.0740741423e+00   -4.0665435164e+00   -4.0590406871e+00   -4.0515654768e+00
   -4.0441177254e+00   -4.0366973128e+00   -4.0293040903e+00   -4.0219379092e+00
   -4.0145986208e+00   -4.0072860764e+00   -4.0000000825e+00   -3.9927405372e+00
   -3.9855073028e+00   -3.9783002375e+00   -3.9711191995e+00   -3.9639640470e+00
   -3.9568346222e+00   -3.9497307693e+00   -3.9426523852e+00   -3.9355993345e+00
   -3.9285714822e+00   -3.9215686930e+00   -3.9145908318e+00   -3.9076377324e+00
   -3.9007092786e+00   -3.8938053575e+00   -3.8869258402e+00   -3.8800705978e+00
   -3.8732395014e+00   -3.8664324222e+00   -3.8596491897e+00   -3.8528897179e+00
   -3.8461538879e+00   -3.8394415767e+00   -3.8327526616e+00   -3.8260870197e+00
   -3.8194445241e+00   -3.8128250158e+00   -3.8062284180e+00   -3.7996546136e+00
   -3.7931034854e+00   -3.7865749162e+00   -3.7800687890e+00   -3.7735849788e+00
   -3.7671233412e+00   -3.7606838002e+00   -3.7542662442e+00   -3.7478705615e+00
   -3.7414966404e+00   -3.7351443691e+00   -3.7288136282e+00   -3.7225042799e+00
   -3.7162162523e+00   -3.7099494390e+00   -3.7037037335e+00   -3.6974790292e+00
   -3.6912752197e+00   -3.6850921941e+00   -3.6789298138e+00   -3.6727880140e+00
   -3.6666666933e+00   -3.6605657501e+00
  </PP_LOCAL>
 <PP_NONLOCAL>
   <PP_BETA.1
       type="real"
       size=" 602"
       columns="4"
       index="1"
       angular_momentum="0"
       cutoff_radius_index=" 246"
       cutoff_radius="    2.4500000000E+00" >
    0.0000000000E+00    8.1959788337E-02    1.6389680452E-01    2.4578292762E-01
    3.2757945385E-01    4.0923209012E-01    4.9066628384E-01    5.7178299213E-01
    6.5245498564E-01    7.3252377312E-01    8.1179722184E-01    8.9004793688E-01
    9.6701244883E-01    1.0423912454E+00    1.1158496674E+00    1.1870196733E+00
    1.2555024628E+00    1.3208719323E+00    1.3826789204E+00    1.4404561895E+00
    1.4937240648E+00    1.5419966682E+00    1.5847886227E+00    1.6216221501E+00
    1.6520344202E+00    1.6755850973E+00    1.6918638179E+00    1.7004976921E+00
    1.7011584600E+00    1.6935693577E+00    1.6775114916E+00    1.6528296167E+00
    1.6194371715E+00    1.5773206519E+00    1.5265428914E+00    1.4672455267E+00
    1.3996503949E+00    1.3240598869E+00    1.2408561029E+00    1.1504990593E+00
    1.0535236873E+00    9.5053575514E-01    8.4220679309E-01    7.2926802100E-01
    6.1250336841E-01    4.9274167614E-01    3.7084818278E-01    2.4771546294E-01
    1.2425386707E-01    1.3813194463E-03   -1.1998657264E-01   -2.3894639470E-01
   -3.5461775436E-01   -4.6615303210E-01   -5.7274544611E-01   -6.7364109027E-01
   -7.6814360571E-01   -8.5562532978E-01   -9.3553062351E-01   -1.0073854605E+00
   -1.0707974255E+00   -1.1254649411E+00   -1.1711748262E+00   -1.2078060192E+00
   -1.2353302905E+00   -1.2538089488E+00   -1.2633921704E+00   -1.2643161462E+00
   -1.2568972238E+00   -1.2415270112E+00   -1.2186667307E+00   -1.1888397354E+00
   -1.1526235486E+00   -1.1106417836E+00   -1.0635554309E+00   -1.0120542028E+00
   -9.5684640407E-01   -8.9865036693E-01   -8.3818527115E-01   -7.7616221762E-01
   -7.1327568510E-01   -6.5019544375E-01   -5.8755902571E-01   -5.2596484036E-01
   -4.6596600774E-01   -4.0806496843E-01   -3.5270891279E-01   -3.0028605589E-01
   -2.5112276889E-01   -2.0548156076E-01   -1.6355988888E-01   -1.2548976165E-01