<UPF version="2.0.1">
  <PP_INFO>

 Br_ONCV_PBE_FR-1.0.upf

 This pseudopotential file has been produced using the code
 ONCVPSP  (Optimized Norm-Conservinng Vanderbilt PSeudopotential)
 fully-relativistic version 2.1.1, 03/26/2014 by D. R. Hamann
 The code is available through a link at URL www.mat-simresearch.com.
 Documentation with the package provides a full description of the
 input data below.

 While it is not required under the terms of the GNU GPL, it is
 suggested that you cite D. R. Hamann, Phys. Rev. B 88, 085117 (2013)
 in any publication using these pseudopotentials.

 -----

 This pseudopotential was produced with the SG15 1.0 and/or 1.1
 parameter sets, the Schlipf-Gygi norm-conserving pseudopotential
 library. For details of the construction and testing of the
 pseudopotential please refer to:

 M. Schlipf, F. Gygi, Comp. Phys. Comm. 196, 36 (2015)
 http://dx.doi.org/10.1016/j.cpc.2015.05.011

 The above authors kindly ask that you include this reference in all
 publications associated to this pseudopotential.

 Please note this fully-relativistic version does not employ the
 above self-consistent procedure at the fully-relativistic level.

 -----

 This pseudopotential was produced by Peter Scherpelz for the purpose
 of performing GW calculations with spin-orbit-coupling. Please see
 the publication:

 P. Scherpelz, M. Govoni, I. Hamada, G. Galli; J. Chem. Theory Comput. (2016)
 http://dx.doi.org/10.1021/acs.jctc.6b00114

 If you use these pseudopotentials in your work, we also kindly ask
 that you cite the above publication.

 -----

 This work is licensed under the Creative Commons Attribution-ShareAlike 
 4.0 International License. To view a copy of this license, visit 
 http://creativecommons.org/licenses/by-sa/4.0/ or send a letter to 
 Creative Commons, PO Box 1866, Mountain View, CA 94042, USA.

 The SG15 library is Copyright 2015 The Regents of the University of
 California.  Further modifications of these files are Copyright 2016
 Peter Scherpelz.

    <PP_INPUTFILE>
# ATOM AND REFERENCE CONFIGURATION
# atsym  z    nc    nv    iexc   psfile
  Br 35.00     6     2     4      upf
#
#   n    l    f        energy (Ha)
    1    0    2.00
    2    0    2.00
    2    1    6.00
    3    0    2.00
    3    1    6.00
    3    2   10.00
    4    0    2.00
    4    1    5.00
#
# PSEUDOPOTENTIAL AND OPTIMIZATION
# lmax
    2
#
#   l,   rc,     ep,   ncon, nbas, qcut
    0    2.50   -0.74    5    8    5.11
    1    2.50   -0.28    5    8    4.47
    2    2.50    0.09    5    8    4.92
#
# LOCAL POTENTIAL
# lloc, lpopt,  rc(5),   dvloc0
    4    5      2.24       0.00
#
# VANDERBILT-KLEINMAN-BYLANDER PROJECTORs
# l, nproj, debl
    0    2    1.2603
    1    2    1.4072
    2    2    1.0528
#
# MODEL CORE CHARGE
# icmod, fcfact
    0    0.00
#
# LOG DERIVATIVE ANALYSIS
# epsh1, epsh2, depsh
   -5.00    3.00    0.02
#
# OUTPUT GRID
# rlmax, drl
    6.00    0.01
#
# TEST CONFIGURATIONS
# ncnf
    0
# nvcnf
#   n    l    f
    </PP_INPUTFILE>
  </PP_INFO>
  <!--                               -->
  <!-- END OF HUMAN READABLE SECTION -->
  <!--                               -->
    <PP_HEADER
       generated="Generated using ONCVPSP code by D. R. Hamann"
       author="anonymous"
       date="150703"
       comment=""
       element="Br"
       pseudo_type="NC"
       relativistic="full"
       is_ultrasoft="F"
       is_paw="F"
       is_coulomb="F"
       has_so="T"
       has_wfc="F"
       has_gipaw="F"
       core_correction="F"
       functional="PBE"
       z_valence="    7.00"
       total_psenergy="  -1.34282002939E+01"
       rho_cutoff="   6.01000000000E+00"
       l_max="2"
       l_local="-1"
       mesh_size="   602"
       number_of_wfc="0"
       number_of_proj="10"/>
 <PP_MESH>
   <PP_R type="real"  size=" 602" columns="8">
    0.0000    0.0100    0.0200    0.0300    0.0400    0.0500    0.0600    0.0700
    0.0800    0.0900    0.1000    0.1100    0.1200    0.1300    0.1400    0.1500
    0.1600    0.1700    0.1800    0.1900    0.2000    0.2100    0.2200    0.2300
    0.2400    0.2500    0.2600    0.2700    0.2800    0.2900    0.3000    0.3100
    0.3200    0.3300    0.3400    0.3500    0.3600    0.3700    0.3800    0.3900
    0.4000    0.4100    0.4200    0.4300    0.4400    0.4500    0.4600    0.4700
    0.4800    0.4900    0.5000    0.5100    0.5200    0.5300    0.5400    0.5500
    0.5600    0.5700    0.5800    0.5900    0.6000    0.6100    0.6200    0.6300
    0.6400    0.6500    0.6600    0.6700    0.6800    0.6900    0.7000    0.7100
    0.7200    0.7300    0.7400    0.7500    0.7600    0.7700    0.7800    0.7900
    0.8000    0.8100    0.8200    0.8300    0.8400    0.8500    0.8600    0.8700
    0.8800    0.8900    0.9000    0.9100    0.9200    0.9300    0.9400    0.9500
    0.9600    0.9700    0.9800    0.9900    1.0000    1.0100    1.0200    1.0300
    1.0400    1.0500    1.0600    1.0700    1.0800    1.0900    1.1000    1.1100
    1.1200    1.1300    1.1400    1.1500    1.1600    1.1700    1.1800    1.1900
    1.2000    1.2100    1.2200    1.2300    1.2400    1.2500    1.2600    1.2700
    1.2800    1.2900    1.3000    1.3100    1.3200    1.3300    1.3400    1.3500
    1.3600    1.3700    1.3800    1.3900    1.4000    1.4100    1.4200    1.4300
    1.4400    1.4500    1.4600    1.4700    1.4800    1.4900    1.5000    1.5100
    1.5200    1.5300    1.5400    1.5500    1.5600    1.5700    1.5800    1.5900
    1.6000    1.6100    1.6200    1.6300    1.6400    1.6500    1.6600    1.6700
    1.6800    1.6900    1.7000    1.7100    1.7200    1.7300    1.7400    1.7500
    1.7600    1.7700    1.7800    1.7900    1.8000    1.8100    1.8200    1.8300
    1.8400    1.8500    1.8600    1.8700    1.8800    1.8900    1.9000    1.9100
    1.9200    1.9300    1.9400    1.9500    1.9600    1.9700    1.9800    1.9900
    2.0000    2.0100    2.0200    2.0300    2.0400    2.0500    2.0600    2.0700
    2.0800    2.0900    2.1000    2.1100    2.1200    2.1300    2.1400    2.1500
    2.1600    2.1700    2.1800    2.1900    2.2000    2.2100    2.2200    2.2300
    2.2400    2.2500    2.2600    2.2700    2.2800    2.2900    2.3000    2.3100
    2.3200    2.3300    2.3400    2.3500    2.3600    2.3700    2.3800    2.3900
    2.4000    2.4100    2.4200    2.4300    2.4400    2.4500    2.4600    2.4700
    2.4800    2.4900    2.5000    2.5100    2.5200    2.5300    2.5400    2.5500
    2.5600    2.5700    2.5800    2.5900    2.6000    2.6100    2.6200    2.6300
    2.6400    2.6500    2.6600    2.6700    2.6800    2.6900    2.7000    2.7100
    2.7200    2.7300    2.7400    2.7500    2.7600    2.7700    2.7800    2.7900
    2.8000    2.8100    2.8200    2.8300    2.8400    2.8500    2.8600    2.8700
    2.8800    2.8900    2.9000    2.9100    2.9200    2.9300    2.9400    2.9500
    2.9600    2.9700    2.9800    2.9900    3.0000    3.0100    3.0200    3.0300
    3.0400    3.0500    3.0600    3.0700    3.0800    3.0900    3.1000    3.1100
    3.1200    3.1300    3.1400    3.1500    3.1600    3.1700    3.1800    3.1900
    3.2000    3.2100    3.2200    3.2300    3.2400    3.2500    3.2600    3.2700
    3.2800    3.2900    3.3000    3.3100    3.3200    3.3300    3.3400    3.3500
    3.3600    3.3700    3.3800    3.3900    3.4000    3.4100    3.4200    3.4300
    3.4400    3.4500    3.4600    3.4700    3.4800    3.4900    3.5000    3.5100
    3.5200    3.5300    3.5400    3.5500    3.5600    3.5700    3.5800    3.5900
    3.6000    3.6100    3.6200    3.6300    3.6400    3.6500    3.6600    3.6700
    3.6800    3.6900    3.7000    3.7100    3.7200    3.7300    3.7400    3.7500
    3.7600    3.7700    3.7800    3.7900    3.8000    3.8100    3.8200    3.8300
    3.8400    3.8500    3.8600    3.8700    3.8800    3.8900    3.9000    3.9100
    3.9200    3.9300    3.9400    3.9500    3.9600    3.9700    3.9800    3.9900
    4.0000    4.0100    4.0200    4.0300    4.0400    4.0500    4.0600    4.0700
    4.0800    4.0900    4.1000    4.1100    4.1200    4.1300    4.1400    4.1500
    4.1600    4.1700    4.1800    4.1900    4.2000    4.2100    4.2200    4.2300
    4.2400    4.2500    4.2600    4.2700    4.2800    4.2900    4.3000    4.3100
    4.3200    4.3300    4.3400    4.3500    4.3600    4.3700    4.3800    4.3900
    4.4000    4.4100    4.4200    4.4300    4.4400    4.4500    4.4600    4.4700
    4.4800    4.4900    4.5000    4.5100    4.5200    4.5300    4.5400    4.5500
    4.5600    4.5700    4.5800    4.5900    4.6000    4.6100    4.6200    4.6300
    4.6400    4.6500    4.6600    4.6700    4.6800    4.6900    4.7000    4.7100
    4.7200    4.7300    4.7400    4.7500    4.7600    4.7700    4.7800    4.7900
    4.8000    4.8100    4.8200    4.8300    4.8400    4.8500    4.8600    4.8700
    4.8800    4.8900    4.9000    4.9100    4.9200    4.9300    4.9400    4.9500
    4.9600    4.9700    4.9800    4.9900    5.0000    5.0100    5.0200    5.0300
    5.0400    5.0500    5.0600    5.0700    5.0800    5.0900    5.1000    5.1100
    5.1200    5.1300    5.1400    5.1500    5.1600    5.1700    5.1800    5.1900
    5.2000    5.2100    5.2200    5.2300    5.2400    5.2500    5.2600    5.2700
    5.2800    5.2900    5.3000    5.3100    5.3200    5.3300    5.3400    5.3500
    5.3600    5.3700    5.3800    5.3900    5.4000    5.4100    5.4200    5.4300
    5.4400    5.4500    5.4600    5.4700    5.4800    5.4900    5.5000    5.5100
    5.5200    5.5300    5.5400    5.5500    5.5600    5.5700    5.5800    5.5900
    5.6000    5.6100    5.6200    5.6300    5.6400    5.6500    5.6600    5.6700
    5.6800    5.6900    5.7000    5.7100    5.7200    5.7300    5.7400    5.7500
    5.7600    5.7700    5.7800    5.7900    5.8000    5.8100    5.8200    5.8300
    5.8400    5.8500    5.8600    5.8700    5.8800    5.8900    5.9000    5.9100
    5.9200    5.9300    5.9400    5.9500    5.9600    5.9700    5.9800    5.9900
    6.0000    6.0100
   </PP_R>
   <PP_RAB type="real"  size=" 602" columns="8">
    0.0100    0.0100    0.0100    0.0100    0.0100    0.0100    0.0100    0.0100
    0.0100    0.0100    0.0100    0.0100    0.0100    0.0100    0.0100    0.0100
    0.0100    0.0100    0.0100    0.0100    0.0100    0.0100    0.0100    0.0100
    0.0100    0.0100    0.0100    0.0100    0.0100    0.0100    0.0100    0.0100
    0.0100    0.0100    0.0100    0.0100    0.0100    0.0100    0.0100    0.0100
    0.0100    0.0100    0.0100    0.0100    0.0100    0.0100    0.0100    0.0100
    0.0100    0.0100    0.0100    0.0100    0.0100    0.0100    0.0100    0.0100
    0.0100    0.0100    0.0100    0.0100    0.0100    0.0100    0.0100    0.0100
    0.0100    0.0100    0.0100    0.0100    0.0100    0.0100    0.0100    0.0100
    0.0100    0.0100    0.0100    0.0100    0.0100    0.0100    0.0100    0.0100
    0.0100    0.0100    0.0100    0.0100    0.0100    0.0100    0.0100    0.0100
    0.0100    0.0100    0.0100    0.0100    0.0100    0.0100    0.0100    0.0100
    0.0100    0.0100    0.0100    0.0100    0.0100    0.0100    0.0100    0.0100
    0.0100    0.0100    0.0100    0.0100    0.0100    0.0100    0.0100    0.0100
    0.0100    0.0100    0.0100    0.0100    0.0100    0.0100    0.0100    0.0100
    0.0100    0.0100    0.0100    0.0100    0.0100    0.0100    0.0100    0.0100
    0.0100    0.0100    0.0100    0.0100    0.0100    0.0100    0.0100    0.0100
    0.0100    0.0100    0.0100    0.0100    0.0100    0.0100    0.0100    0.0100
    0.0100    0.0100    0.0100    0.0100    0.0100    0.0100    0.0100    0.0100
    0.0100    0.0100    0.0100    0.0100    0.0100    0.0100    0.0100    0.0100
    0.0100    0.0100    0.0100    0.0100    0.0100    0.0100    0.0100    0.0100
    0.0100    0.0100    0.0100    0.0100    0.0100    0.0100    0.0100    0.0100
    0.0100    0.0100    0.0100    0.0100    0.0100    0.0100    0.0100    0.0100
    0.0100    0.0100    0.0100    0.0100    0.0100    0.0100    0.0100    0.0100
    0.0100    0.0100    0.0100    0.0100    0.0100    0.0100    0.0100    0.0100
    0.0100    0.0100    0.0100    0.0100    0.0100    0.0100    0.0100    0.0100
    0.0100    0.0100    0.0100    0.0100    0.0100    0.0100    0.0100    0.0100
    0.0100    0.0100    0.0100    0.0100    0.0100    0.0100    0.0100    0.0100
    0.0100    0.0100    0.0100    0.0100    0.0100    0.0100    0.0100    0.0100
    0.0100    0.0100    0.0100    0.0100    0.0100    0.0100    0.0100    0.0100
    0.0100    0.0100    0.0100    0.0100    0.0100    0.0100    0.0100    0.0100
    0.0100    0.0100    0.0100    0.0100    0.0100    0.0100    0.0100    0.0100
    0.0100    0.0100    0.0100    0.0100    0.0100    0.0100    0.0100    0.0100
    0.0100    0.0100    0.0100    0.0100    0.0100    0.0100    0.0100    0.0100
    0.0100    0.0100    0.0100    0.0100    0.0100    0.0100    0.0100    0.0100
    0.0100    0.0100    0.0100    0.0100    0.0100    0.0100    0.0100    0.0100
    0.0100    0.0100    0.0100    0.0100    0.0100    0.0100    0.0100    0.0100
    0.0100    0.0100    0.0100    0.0100    0.0100    0.0100    0.0100    0.0100
    0.0100    0.0100    0.0100    0.0100    0.0100    0.0100    0.0100    0.0100
    0.0100    0.0100    0.0100    0.0100    0.0100    0.0100    0.0100    0.0100
    0.0100    0.0100    0.0100    0.0100    0.0100    0.0100    0.0100    0.0100
    0.0100    0.0100    0.0100    0.0100    0.0100    0.0100    0.0100    0.0100
    0.0100    0.0100    0.0100    0.0100    0.0100    0.0100    0.0100    0.0100
    0.0100    0.0100    0.0100    0.0100    0.0100    0.0100    0.0100    0.0100
    0.0100    0.0100    0.0100    0.0100    0.0100    0.0100    0.0100    0.0100
    0.0100    0.0100    0.0100    0.0100    0.0100    0.0100    0.0100    0.0100
    0.0100    0.0100    0.0100    0.0100    0.0100    0.0100    0.0100    0.0100
    0.0100    0.0100    0.0100    0.0100    0.0100    0.0100    0.0100    0.0100
    0.0100    0.0100    0.0100    0.0100    0.0100    0.0100    0.0100    0.0100
    0.0100    0.0100    0.0100    0.0100    0.0100    0.0100    0.0100    0.0100
    0.0100    0.0100    0.0100    0.0100    0.0100    0.0100    0.0100    0.0100
    0.0100    0.0100    0.0100    0.0100    0.0100    0.0100    0.0100    0.0100
    0.0100    0.0100    0.0100    0.0100    0.0100    0.0100    0.0100    0.0100
    0.0100    0.0100    0.0100    0.0100    0.0100    0.0100    0.0100    0.0100
    0.0100    0.0100    0.0100    0.0100    0.0100    0.0100    0.0100    0.0100
    0.0100    0.0100    0.0100    0.0100    0.0100    0.0100    0.0100    0.0100
    0.0100    0.0100    0.0100    0.0100    0.0100    0.0100    0.0100    0.0100
    0.0100    0.0100    0.0100    0.0100    0.0100    0.0100    0.0100    0.0100
    0.0100    0.0100    0.0100    0.0100    0.0100    0.0100    0.0100    0.0100
    0.0100    0.0100    0.0100    0.0100    0.0100    0.0100    0.0100    0.0100
    0.0100    0.0100    0.0100    0.0100    0.0100    0.0100    0.0100    0.0100
    0.0100    0.0100    0.0100    0.0100    0.0100    0.0100    0.0100    0.0100
    0.0100    0.0100    0.0100    0.0100    0.0100    0.0100    0.0100    0.0100
    0.0100    0.0100    0.0100    0.0100    0.0100    0.0100    0.0100    0.0100
    0.0100    0.0100    0.0100    0.0100    0.0100    0.0100    0.0100    0.0100
    0.0100    0.0100    0.0100    0.0100    0.0100    0.0100    0.0100    0.0100
    0.0100    0.0100    0.0100    0.0100    0.0100    0.0100    0.0100    0.0100
    0.0100    0.0100    0.0100    0.0100    0.0100    0.0100    0.0100    0.0100
    0.0100    0.0100    0.0100    0.0100    0.0100    0.0100    0.0100    0.0100
    0.0100    0.0100    0.0100    0.0100    0.0100    0.0100    0.0100    0.0100
    0.0100    0.0100    0.0100    0.0100    0.0100    0.0100    0.0100    0.0100
    0.0100    0.0100    0.0100    0.0100    0.0100    0.0100    0.0100    0.0100
    0.0100    0.0100    0.0100    0.0100    0.0100    0.0100    0.0100    0.0100
    0.0100    0.0100    0.0100    0.0100    0.0100    0.0100    0.0100    0.0100
    0.0100    0.0100    0.0100    0.0100    0.0100    0.0100    0.0100    0.0100
    0.0100    0.0100
   </PP_RAB>
 </PP_MESH>
  <PP_LOCAL type="real"  size=" 602" columns="4">
   -1.4061361328E+01   -1.4119070721E+01   -1.4290390005E+01   -1.4519504323E+01
   -1.4750598817E+01   -1.4941557027E+01   -1.5071532787E+01   -1.5138267128E+01
   -1.5151087305E+01   -1.5124084528E+01   -1.5071380914E+01   -1.5004666064E+01
   -1.4932431790E+01   -1.4860191215E+01   -1.4791111765E+01   -1.4726710036E+01
   -1.4667442665E+01   -1.4613144586E+01   -1.4563325773E+01   -1.4517357810E+01
   -1.4474583367E+01   -1.4434375447E+01   -1.4396165751E+01   -1.4359455140E+01
   -1.4323814316E+01   -1.4288879757E+01   -1.4254347454E+01   -1.4219966370E+01
   -1.4185531969E+01   -1.4150880439E+01   -1.4115883554E+01   -1.4080444176E+01
   -1.4044492283E+01   -1.4007981543E+01   -1.3970886148E+01   -1.3933198010E+01
   -1.3894924196E+01   -1.3856084536E+01   -1.3816709387E+01   -1.3776837613E+01
   -1.3736514652E+01   -1.3695790762E+01   -1.3654719417E+01   -1.3613355864E+01
   -1.3571755842E+01   -1.3529974471E+01   -1.3488065301E+01   -1.3446079538E+01
   -1.3404065421E+01   -1.3362067718E+01   -1.3320127408E+01   -1.3278281481E+01
   -1.3236562779E+01   -1.3194999971E+01   -1.3153617694E+01   -1.3112436494E+01
   -1.3071473162E+01   -1.3030740759E+01   -1.2990248951E+01   -1.2950004090E+01
   -1.2910009592E+01   -1.2870265957E+01   -1.2830771156E+01   -1.2791520725E+01
   -1.2752507952E+01   -1.2713724120E+01   -1.2675158607E+01   -1.2636799040E+01
   -1.2598631478E+01   -1.2560640549E+01   -1.2522809540E+01   -1.2485120557E+01
   -1.2447554662E+01   -1.2410091997E+01   -1.2372711916E+01   -1.2335393119E+01
   -1.2298113784E+01   -1.2260851721E+01   -1.2223584514E+01   -1.2186289668E+01
   -1.2148944757E+01   -1.2111527574E+01   -1.2074016280E+01   -1.2036389552E+01
   -1.1998626720E+01   -1.1960707904E+01   -1.1922614142E+01   -1.1884327506E+01
   -1.1845831204E+01   -1.1807109678E+01   -1.1768148679E+01   -1.1728935329E+01
   -1.1689458172E+01   -1.1649707205E+01   -1.1609673894E+01   -1.1569351156E+01
   -1.1528733372E+01   -1.1487816399E+01   -1.1446597458E+01   -1.1405075114E+01
   -1.1363249213E+01   -1.1321120815E+01   -1.1278692085E+01   -1.1235966288E+01
   -1.1192947703E+01   -1.1149641467E+01   -1.1106053522E+01   -1.1062190511E+01
   -1.1018059734E+01   -1.0973669101E+01   -1.0929026967E+01   -1.0884142092E+01
   -1.0839023557E+01   -1.0793680797E+01   -1.0748123430E+01   -1.0702361241E+01
   -1.0656404146E+01   -1.0610262166E+01   -1.0563945356E+01   -1.0517463795E+01
   -1.0470827563E+01   -1.0424046702E+01   -1.0377131218E+01   -1.0330091069E+01
   -1.0282936122E+01   -1.0235676182E+01   -1.0188320994E+01   -1.0140880180E+01
   -1.0093363303E+01   -1.0045779864E+01   -9.9981392375E+00   -9.9504507574E+00
   -9.9027236853E+00   -9.8549671846E+00   -9.8071903909E+00   -9.7594023594E+00
   -9.7116120842E+00   -9.6638285409E+00   -9.6160606140E+00   -9.5683171706E+00
   -9.5206070344E+00   -9.4729389645E+00   -9.4253217165E+00   -9.3777639643E+00
   -9.3302743633E+00   -9.2828615246E+00   -9.2355339812E+00   -9.1883002744E+00
   -9.1411688058E+00   -9.0941479922E+00   -9.0472461211E+00   -9.0004714307E+00
   -8.9538320829E+00   -8.9073360892E+00   -8.8609914633E+00   -8.8148059400E+00
   -8.7687873564E+00   -8.7229431416E+00   -8.6772808555E+00   -8.6318076425E+00
   -8.5865307111E+00   -8.5414568886E+00   -8.4965929824E+00   -8.4519454630E+00
   -8.4075206951E+00   -8.3633247500E+00   -8.3193635177E+00   -8.2756426262E+00
   -8.2321674684E+00   -8.1889431854E+00   -8.1459746623E+00   -8.1032665103E+00
   -8.0608231078E+00   -8.0186484964E+00   -7.9767465600E+00   -7.9351207356E+00
   -7.8937744340E+00   -7.8527104610E+00   -7.8119317823E+00   -7.7714405570E+00
   -7.7312393353E+00   -7.6913296351E+00   -7.6517136031E+00   -7.6123922146E+00
   -7.5733670349E+00   -7.5346387311E+00   -7.4962082291E+00   -7.4580759457E+00
   -7.4202421864E+00   -7.3827071607E+00   -7.3454705976E+00   -7.3085325213E+00
   -7.2718921950E+00   -7.2355493369E+00   -7.1995029878E+00   -7.1637524112E+00
   -7.1282965960E+00   -7.0931343700E+00   -7.0582646699E+00   -7.0236860013E+00
   -6.9893971519E+00   -6.9553965027E+00   -6.9216825596E+00   -6.8882537218E+00
   -6.8551082347E+00   -6.8222444935E+00   -6.7896605927E+00   -6.7573547812E+00
   -6.7253251688E+00   -6.6935698181E+00   -6.6620868667E+00   -6.6308742383E+00
   -6.5999299895E+00   -6.5692520346E+00   -6.5388382471E+00   -6.5086866050E+00
   -6.4787947963E+00   -6.4491606883E+00   -6.4197819855E+00   -6.3906562531E+00
   -6.3617813089E+00   -6.3331544551E+00   -6.3047731981E+00   -6.2766350154E+00
   -6.2487369606E+00   -6.2210762315E+00   -6.1936500850E+00   -6.1664557964E+00
   -6.1394903339E+00   -6.1127514957E+00   -6.0862367852E+00   -6.0599436506E+00
   -6.0338700827E+00   -6.0080137764E+00   -5.9823725662E+00   -5.9569444807E+00
   -5.9317273964E+00   -5.9067193111E+00   -5.8819182463E+00   -5.8573222101E+00
   -5.8329291735E+00   -5.8087371135E+00   -5.7847441056E+00   -5.7609479586E+00
   -5.7373465885E+00   -5.7139380075E+00   -5.6907198596E+00   -5.6676899469E+00
   -5.6448461107E+00   -5.6221859527E+00   -5.5997071229E+00   -5.5774072291E+00
   -5.5552842804E+00   -5.5333360694E+00   -5.5115603404E+00   -5.4899552979E+00
   -5.4685189428E+00   -5.4472492497E+00   -5.4261443546E+00   -5.4052023102E+00
   -5.3844210755E+00   -5.3637989694E+00   -5.3433341708E+00   -5.3230247366E+00
   -5.3028690493E+00   -5.2828653709E+00   -5.2630118549E+00   -5.2433069205E+00
   -5.2237489306E+00   -5.2043361431E+00   -5.1850669955E+00   -5.1659399513E+00
   -5.1469533740E+00   -5.1281057062E+00   -5.1093955111E+00   -5.0908212590E+00
   -5.0723813871E+00   -5.0540745556E+00   -5.0358993297E+00   -5.0178541721E+00
   -4.9999377971E+00   -4.9821488497E+00   -4.9644858968E+00   -4.9469476191E+00
   -4.9295327646E+00   -4.9122400081E+00   -4.8950679876E+00   -4.8780155500E+00
   -4.8610814523E+00   -4.8442643682E+00   -4.8275631550E+00   -4.8109766544E+00
   -4.7945036474E+00   -4.7781429252E+00   -4.7618934321E+00   -4.7457540384E+00
   -4.7297235312E+00   -4.7138008846E+00   -4.6979850428E+00   -4.6822749008E+00
   -4.6666693474E+00   -4.6511674303E+00   -4.6357681228E+00   -4.6204703299E+00
   -4.6052730917E+00   -4.5901754621E+00   -4.5751764571E+00   -4.5602750151E+00
   -4.5454702919E+00   -4.5307613543E+00   -4.5161472315E+00   -4.5016269838E+00
   -4.4871997805E+00   -4.4728647317E+00   -4.4586208853E+00   -4.4444674083E+00
   -4.4304034840E+00   -4.4164282640E+00   -4.4025408192E+00   -4.3887404076E+00
   -4.3750262290E+00   -4.3613974652E+00   -4.3478532414E+00   -4.3343928641E+00
   -4.3210155616E+00   -4.3077205404E+00   -4.2945069947E+00   -4.2813742536E+00
   -4.2683215813E+00   -4.2553482118E+00   -4.2424533962E+00   -4.2296364882E+00
   -4.2168967862E+00   -4.2042335543E+00   -4.1916460888E+00   -4.1791337703E+00
   -4.1666959298E+00   -4.1543318640E+00   -4.1420409032E+00   -4.1298224572E+00
   -4.1176758881E+00   -4.1056005276E+00   -4.0935957296E+00   -4.0816609352E+00
   -4.0697955363E+00   -4.0579989016E+00   -4.0462703989E+00   -4.0346095028E+00
   -4.0230156335E+00   -4.0114881989E+00   -4.0000265718E+00   -3.9886302619E+00
   -3.9772987163E+00   -3.9660313817E+00   -3.9548276355E+00   -3.9436870162E+00
   -3.9326089988E+00   -3.9215930560E+00   -3.9106386077E+00   -3.8997451767E+00
   -3.8889122801E+00   -3.8781394149E+00   -3.8674260464E+00   -3.8567716738E+00
   -3.8461758572E+00   -3.8356381171E+00   -3.8251579664E+00   -3.8147348744E+00
   -3.8043684444E+00   -3.7940582190E+00   -3.7838037410E+00   -3.7736045050E+00
   -3.7634600968E+00   -3.7533701003E+00   -3.7433340792E+00   -3.7333515794E+00
   -3.7234221402E+00   -3.7135453938E+00   -3.7037209244E+00   -3.6939483161E+00
   -3.6842271037E+00   -3.6745569205E+00   -3.6649373851E+00   -3.6553681010E+00
   -3.6458486574E+00   -3.6363786275E+00   -3.6269576817E+00   -3.6175854419E+00
   -3.6082615303E+00   -3.5989855305E+00   -3.5897570893E+00   -3.5805758703E+00
   -3.5714415129E+00   -3.5623536567E+00   -3.5533118848E+00   -3.5443159064E+00
   -3.5353653803E+00   -3.5264599629E+00   -3.5175992961E+00   -3.5087830099E+00
   -3.5000108209E+00   -3.4912824014E+00   -3.4825974237E+00   -3.4739555330E+00
   -3.4653564048E+00   -3.4567997574E+00   -3.4482852785E+00   -3.4398126556E+00
   -3.4313815403E+00   -3.4229916445E+00   -3.4146426909E+00   -3.4063343817E+00
   -3.3980664188E+00   -3.3898384636E+00   -3.3816502551E+00   -3.3735015234E+00
   -3.3653919845E+00   -3.3573213542E+00   -3.3492893060E+00   -3.3412955980E+00
   -3.3333399702E+00   -3.3254221519E+00   -3.3175418722E+00   -3.3096988190E+00
   -3.3018927618E+00   -3.2941234532E+00   -3.2863906352E+00   -3.2786940495E+00
   -3.2710334008E+00   -3.2634084625E+00   -3.2558190025E+00   -3.2482647748E+00
   -3.2407455332E+00   -3.2332610013E+00   -3.2258109497E+00   -3.2183951639E+00
   -3.2110134092E+00   -3.2036654509E+00   -3.1963510340E+00   -3.1890699197E+00
   -3.1818219129E+00   -3.1746067901E+00   -3.1674243274E+00   -3.1602742932E+00
   -3.1531564336E+00   -3.1460705749E+00   -3.1390165036E+00   -3.1319940064E+00
   -3.1250028702E+00   -3.1180428423E+00   -3.1111137496E+00   -3.1042153960E+00
   -3.0973475781E+00   -3.0905100926E+00   -3.0837027144E+00   -3.0769252418E+00
   -3.0701775052E+00   -3.0634593106E+00   -3.0567704641E+00   -3.0501107707E+00
   -3.0434799953E+00   -3.0368779954E+00   -3.0303045863E+00   -3.0237595830E+00
   -3.0172428006E+00   -3.0107540317E+00   -3.0042930974E+00   -2.9978598424E+00
   -2.9914540904E+00   -2.9850756653E+00   -2.9787243908E+00   -2.9724000511E+00
   -2.9661025147E+00   -2.9598316159E+00   -2.9535871869E+00   -2.9473690594E+00
   -2.9411770528E+00   -2.9350109852E+00   -2.9288707252E+00   -2.9227561126E+00
   -2.9166669871E+00   -2.9106031887E+00   -2.9045645328E+00   -2.8985508713E+00
   -2.8925620681E+00   -2.8865979702E+00   -2.8806584250E+00   -2.8747432798E+00
   -2.8688523496E+00   -2.8629855123E+00   -2.8571426297E+00   -2.8513235559E+00
   -2.8455281455E+00   -2.8397562529E+00   -2.8340076952E+00   -2.8282823694E+00
   -2.8225801378E+00   -2.8169008614E+00   -2.8112444016E+00   -2.8056106171E+00
   -2.7999993367E+00   -2.7944104630E+00   -2.7888438635E+00   -2.7832994060E+00
   -2.7777769582E+00   -2.7722763849E+00   -2.7667975231E+00   -2.7613402802E+00
   -2.7559045301E+00   -2.7504901466E+00   -2.7450970035E+00   -2.7397249742E+00
   -2.7343738979E+00   -2.7290436893E+00   -2.7237342279E+00   -2.7184453936E+00
   -2.7131770660E+00   -2.7079291249E+00   -2.7027014191E+00   -2.6974938596E+00
   -2.6923063360E+00   -2.6871387335E+00   -2.6819909375E+00   -2.6768628333E+00
   -2.6717542829E+00   -2.6666651872E+00   -2.6615954478E+00   -2.6565449556E+00
   -2.6515136011E+00   -2.6465012750E+00   -2.6415078546E+00   -2.6365332254E+00
   -2.6315773035E+00   -2.6266399846E+00   -2.6217211644E+00   -2.6168207388E+00
   -2.6119386020E+00   -2.6070746203E+00   -2.6022287252E+00   -2.5974008173E+00
   -2.5925907972E+00   -2.5877985655E+00   -2.5830240228E+00   -2.5782670502E+00
   -2.5735275579E+00   -2.5688054637E+00   -2.5641006728E+00   -2.5594130904E+00
   -2.5547426219E+00   -2.5500891692E+00   -2.5454526132E+00   -2.5408328915E+00
   -2.5362299135E+00   -2.5316435891E+00   -2.5270738278E+00   -2.5225205392E+00
   -2.5179836174E+00   -2.5134629747E+00   -2.5089585399E+00   -2.5044702270E+00
   -2.4999979496E+00   -2.4955416218E+00   -2.4911011574E+00   -2.4866764451E+00
   -2.4822674224E+00   -2.4778740120E+00   -2.4734961317E+00   -2.4691336993E+00
   -2.4647866327E+00   -2.4604548469E+00   -2.4561382370E+00   -2.4518367505E+00
   -2.4475503093E+00   -2.4432788350E+00   -2.4390222493E+00   -2.4347804738E+00
   -2.4305534225E+00   -2.4263410052E+00   -2.4221431679E+00   -2.4179598357E+00
   -2.4137909342E+00   -2.4096363886E+00   -2.4054961243E+00   -2.4013700564E+00
   -2.3972581040E+00   -2.3931602136E+00   -2.3890763139E+00   -2.3850063339E+00
   -2.3809502023E+00   -2.3769078479E+00   -2.3728791894E+00   -2.3688641499E+00
   -2.3648626786E+00   -2.3608747075E+00   -2.3569001689E+00   -2.3529389949E+00
   -2.3489911176E+00   -2.3450564612E+00   -2.3411349481E+00   -2.3372265321E+00
   -2.3333311486E+00   -2.3294487328E+00
  </PP_LOCAL>
 <PP_NONLOCAL>
   <PP_BETA.1
       type="real"
       size=" 602"
       columns="4"
       index="1"
       angular_momentum="0"
       cutoff_radius_index=" 254"
       cutoff_radius="    2.5300000000E+00" >
    0.0000000000E+00   -3.1633106093E-02   -6.3262229382E-02   -9.4883196709E-02
   -1.2649145542E-01   -1.5808188663E-01   -1.8964862214E-01   -2.2118486613E-01
   -2.5268272274E-01   -2.8413303085E-01   -3.1552520687E-01   -3.4684709685E-01
   -3.7808483870E-01   -4.0922273561E-01   -4.4024314152E-01   -4.7112635937E-01
   -5.0185055308E-01   -5.3239167381E-01   -5.6272340114E-01   -5.9281709978E-01
   -6.2264179224E-01   -6.5216414774E-01   -6.8134848789E-01   -7.1015680910E-01
   -7.3854882202E-01   -7.6648200794E-01   -7.9391169213E-01   -8.2079113412E-01
   -8.4707163429E-01   -8.7270265695E-01   -8.9763196914E-01   -9.2180579493E-01
   -9.4516898356E-01   -9.6766519408E-01   -9.8923709052E-01   -1.0098265506E+00
   -1.0293748874E+00   -1.0478230815E+00   -1.0651120177E+00   -1.0811827400E+00
   -1.0959767073E+00   -1.1094360549E+00   -1.1215038649E+00   -1.1321244378E+00
   -1.1412435684E+00   -1.1488088215E+00   -1.1547698085E+00   -1.1590784601E+00
   -1.1616892938E+00   -1.1625597012E+00   -1.1616501911E+00   -1.1589246375E+00
   -1.1543505497E+00   -1.1478993108E+00   -1.1395463503E+00   -1.1292714589E+00
   -1.1170588767E+00   -1.1028975815E+00   -1.0867813685E+00   -1.0687091070E+00
   -1.0486847459E+00   -1.0267175977E+00   -1.0028222824E+00   -9.7701889927E-01
   -9.4933308722E-01   -9.1979599722E-01   -8.8844437226E-01   -8.5532054502E-01