<UPF version="2.0.1">
  <PP_INFO>

 Cl_ONCV_PBE-1.0.upf

 This pseudopotential file has been produced using the code
 ONCVPSP  (Optimized Norm-Conservinng Vanderbilt PSeudopotential)
 scalar-relativistic version 2.1.1, 03/26/2014 by D. R. Hamann
 The code is available through a link at URL www.mat-simresearch.com.
 Documentation with the package provides a full discription of the
 input data below.


 While it is not required under the terms of the GNU GPL, it is
 suggested that you cite D. R. Hamann, Phys. Rev. B 88, 085117 (2013)
 in any publication using these pseudopotentials.


 Copyright 2015 The Regents of the University of California
 
 This work is licensed under the Creative Commons Attribution-ShareAlike 
 4.0 International License. To view a copy of this license, visit 
 http://creativecommons.org/licenses/by-sa/4.0/ or send a letter to 
 Creative Commons, PO Box 1866, Mountain View, CA 94042, USA.
 
 This pseudopotential is part of the Schlipf-Gygi norm-conserving 
 pseudopotential library. Its construction parameters were tuned to 
 reproduce materials of a training set with very high accuracy and 
 should be suitable as a general purpose pseudopotential to treat a 
 variety of different compounds. For details of the construction and 
 testing of the pseudopotential please refer to:
 
 [insert reference to paper here]
 
 We kindly ask that you include this reference in all publications 
 associated to this pseudopotential.


    <PP_INPUTFILE>
# ATOM AND REFERENCE CONFIGURATION
# atsym  z    nc    nv    iexc   psfile
  Cl 17.00     3     2     4      upf
#
#   n    l    f        energy (Ha)
    1    0    2.00
    2    0    2.00
    2    1    6.00
    3    0    2.00
    3    1    5.00
#
# PSEUDOPOTENTIAL AND OPTIMIZATION
# lmax
    1
#
#   l,   rc,     ep,   ncon, nbas, qcut
    0   3.22968  -0.76042    5    8   6.35032
    1   1.75774  -0.31587    5    8   6.69921
#
# LOCAL POTENTIAL
# lloc, lpopt,  rc(5),   dvloc0
    4    5   0.80951      0.00000
#
# VANDERBILT-KLEINMAN-BYLANDER PROJECTORs
# l, nproj, debl
    0    2   0.74762
    1    2   3.84129
#
# MODEL CORE CHARGE
# icmod, fcfact
    0   0.00000
#
# LOG DERIVATIVE ANALYSIS
# epsh1, epsh2, depsh
   -5.00    3.00    0.02
#
# OUTPUT GRID
# rlmax, drl
    6.00    0.01
#
# TEST CONFIGURATIONS
# ncnf
    0
# nvcnf
#   n    l    f
    </PP_INPUTFILE>
  </PP_INFO>
  <!--                               -->
  <!-- END OF HUMAN READABLE SECTION -->
  <!--                               -->
    <PP_HEADER
       generated="Generated using ONCVPSP code by D. R. Hamann"
       author="Martin Schlipf and Francois Gygi"
       date="150105"
       comment=""
       element="Cl"
       pseudo_type="NC"
       relativistic="scalar"
       is_ultrasoft="F"
       is_paw="F"
       is_coulomb="F"
       has_so="F"
       has_wfc="F"
       has_gipaw="F"
       core_correction="F"
       functional="PBE"
       z_valence="    7.00"
       total_psenergy="  -1.49980183293E+01"
       rho_cutoff="   6.01000000000E+00"
       l_max="1"
       l_local="-1"
       mesh_size="   602"
       number_of_wfc="0"
       number_of_proj="4"/>
 <PP_MESH>
   <PP_R type="real"  size=" 602" columns="8">
    0.0000    0.0100    0.0200    0.0300    0.0400    0.0500    0.0600    0.0700
    0.0800    0.0900    0.1000    0.1100    0.1200    0.1300    0.1400    0.1500
    0.1600    0.1700    0.1800    0.1900    0.2000    0.2100    0.2200    0.2300
    0.2400    0.2500    0.2600    0.2700    0.2800    0.2900    0.3000    0.3100
    0.3200    0.3300    0.3400    0.3500    0.3600    0.3700    0.3800    0.3900
    0.4000    0.4100    0.4200    0.4300    0.4400    0.4500    0.4600    0.4700
    0.4800    0.4900    0.5000    0.5100    0.5200    0.5300    0.5400    0.5500
    0.5600    0.5700    0.5800    0.5900    0.6000    0.6100    0.6200    0.6300
    0.6400    0.6500    0.6600    0.6700    0.6800    0.6900    0.7000    0.7100
    0.7200    0.7300    0.7400    0.7500    0.7600    0.7700    0.7800    0.7900
    0.8000    0.8100    0.8200    0.8300    0.8400    0.8500    0.8600    0.8700
    0.8800    0.8900    0.9000    0.9100    0.9200    0.9300    0.9400    0.9500
    0.9600    0.9700    0.9800    0.9900    1.0000    1.0100    1.0200    1.0300
    1.0400    1.0500    1.0600    1.0700    1.0800    1.0900    1.1000    1.1100
    1.1200    1.1300    1.1400    1.1500    1.1600    1.1700    1.1800    1.1900
    1.2000    1.2100    1.2200    1.2300    1.2400    1.2500    1.2600    1.2700
    1.2800    1.2900    1.3000    1.3100    1.3200    1.3300    1.3400    1.3500
    1.3600    1.3700    1.3800    1.3900    1.4000    1.4100    1.4200    1.4300
    1.4400    1.4500    1.4600    1.4700    1.4800    1.4900    1.5000    1.5100
    1.5200    1.5300    1.5400    1.5500    1.5600    1.5700    1.5800    1.5900
    1.6000    1.6100    1.6200    1.6300    1.6400    1.6500    1.6600    1.6700
    1.6800    1.6900    1.7000    1.7100    1.7200    1.7300    1.7400    1.7500
    1.7600    1.7700    1.7800    1.7900    1.8000    1.8100    1.8200    1.8300
    1.8400    1.8500    1.8600    1.8700    1.8800    1.8900    1.9000    1.9100
    1.9200    1.9300    1.9400    1.9500    1.9600    1.9700    1.9800    1.9900
    2.0000    2.0100    2.0200    2.0300    2.0400    2.0500    2.0600    2.0700
    2.0800    2.0900    2.1000    2.1100    2.1200    2.1300    2.1400    2.1500
    2.1600    2.1700    2.1800    2.1900    2.2000    2.2100    2.2200    2.2300
    2.2400    2.2500    2.2600    2.2700    2.2800    2.2900    2.3000    2.3100
    2.3200    2.3300    2.3400    2.3500    2.3600    2.3700    2.3800    2.3900
    2.4000    2.4100    2.4200    2.4300    2.4400    2.4500    2.4600    2.4700
    2.4800    2.4900    2.5000    2.5100    2.5200    2.5300    2.5400    2.5500
    2.5600    2.5700    2.5800    2.5900    2.6000    2.6100    2.6200    2.6300
    2.6400    2.6500    2.6600    2.6700    2.6800    2.6900    2.7000    2.7100
    2.7200    2.7300    2.7400    2.7500    2.7600    2.7700    2.7800    2.7900
    2.8000    2.8100    2.8200    2.8300    2.8400    2.8500    2.8600    2.8700
    2.8800    2.8900    2.9000    2.9100    2.9200    2.9300    2.9400    2.9500
    2.9600    2.9700    2.9800    2.9900    3.0000    3.0100    3.0200    3.0300
    3.0400    3.0500    3.0600    3.0700    3.0800    3.0900    3.1000    3.1100
    3.1200    3.1300    3.1400    3.1500    3.1600    3.1700    3.1800    3.1900
    3.2000    3.2100    3.2200    3.2300    3.2400    3.2500    3.2600    3.2700
    3.2800    3.2900    3.3000    3.3100    3.3200    3.3300    3.3400    3.3500
    3.3600    3.3700    3.3800    3.3900    3.4000    3.4100    3.4200    3.4300
    3.4400    3.4500    3.4600    3.4700    3.4800    3.4900    3.5000    3.5100
    3.5200    3.5300    3.5400    3.5500    3.5600    3.5700    3.5800    3.5900
    3.6000    3.6100    3.6200    3.6300    3.6400    3.6500    3.6600    3.6700
    3.6800    3.6900    3.7000    3.7100    3.7200    3.7300    3.7400    3.7500
    3.7600    3.7700    3.7800    3.7900    3.8000    3.8100    3.8200    3.8300
    3.8400    3.8500    3.8600    3.8700    3.8800    3.8900    3.9000    3.9100
    3.9200    3.9300    3.9400    3.9500    3.9600    3.9700    3.9800    3.9900
    4.0000    4.0100    4.0200    4.0300    4.0400    4.0500    4.0600    4.0700
    4.0800    4.0900    4.1000    4.1100    4.1200    4.1300    4.1400    4.1500
    4.1600    4.1700    4.1800    4.1900    4.2000    4.2100    4.2200    4.2300
    4.2400    4.2500    4.2600    4.2700    4.2800    4.2900    4.3000    4.3100
    4.3200    4.3300    4.3400    4.3500    4.3600    4.3700    4.3800    4.3900
    4.4000    4.4100    4.4200    4.4300    4.4400    4.4500    4.4600    4.4700
    4.4800    4.4900    4.5000    4.5100    4.5200    4.5300    4.5400    4.5500
    4.5600    4.5700    4.5800    4.5900    4.6000    4.6100    4.6200    4.6300
    4.6400    4.6500    4.6600    4.6700    4.6800    4.6900    4.7000    4.7100
    4.7200    4.7300    4.7400    4.7500    4.7600    4.7700    4.7800    4.7900
    4.8000    4.8100    4.8200    4.8300    4.8400    4.8500    4.8600    4.8700
    4.8800    4.8900    4.9000    4.9100    4.9200    4.9300    4.9400    4.9500
    4.9600    4.9700    4.9800    4.9900    5.0000    5.0100    5.0200    5.0300
    5.0400    5.0500    5.0600    5.0700    5.0800    5.0900    5.1000    5.1100
    5.1200    5.1300    5.1400    5.1500    5.1600    5.1700    5.1800    5.1900
    5.2000    5.2100    5.2200    5.2300    5.2400    5.2500    5.2600    5.2700
    5.2800    5.2900    5.3000    5.3100    5.3200    5.3300    5.3400    5.3500
    5.3600    5.3700    5.3800    5.3900    5.4000    5.4100    5.4200    5.4300
    5.4400    5.4500    5.4600    5.4700    5.4800    5.4900    5.5000    5.5100
    5.5200    5.5300    5.5400    5.5500    5.5600    5.5700    5.5800    5.5900
    5.6000    5.6100    5.6200    5.6300    5.6400    5.6500    5.6600    5.6700
    5.6800    5.6900    5.7000    5.7100    5.7200    5.7300    5.7400    5.7500
    5.7600    5.7700    5.7800    5.7900    5.8000    5.8100    5.8200    5.8300
    5.8400    5.8500    5.8600    5.8700    5.8800    5.8900    5.9000    5.9100
    5.9200    5.9300    5.9400    5.9500    5.9600    5.9700    5.9800    5.9900
    6.0000    6.0100
   </PP_R>
   <PP_RAB type="real"  size=" 602" columns="8">
    0.0100    0.0100    0.0100    0.0100    0.0100    0.0100    0.0100    0.0100
    0.0100    0.0100    0.0100    0.0100    0.0100    0.0100    0.0100    0.0100
    0.0100    0.0100    0.0100    0.0100    0.0100    0.0100    0.0100    0.0100
    0.0100    0.0100    0.0100    0.0100    0.0100    0.0100    0.0100    0.0100
    0.0100    0.0100    0.0100    0.0100    0.0100    0.0100    0.0100    0.0100
    0.0100    0.0100    0.0100    0.0100    0.0100    0.0100    0.0100    0.0100
    0.0100    0.0100    0.0100    0.0100    0.0100    0.0100    0.0100    0.0100
    0.0100    0.0100    0.0100    0.0100    0.0100    0.0100    0.0100    0.0100
    0.0100    0.0100    0.0100    0.0100    0.0100    0.0100    0.0100    0.0100
    0.0100    0.0100    0.0100    0.0100    0.0100    0.0100    0.0100    0.0100
    0.0100    0.0100    0.0100    0.0100    0.0100    0.0100    0.0100    0.0100
    0.0100    0.0100    0.0100    0.0100    0.0100    0.0100    0.0100    0.0100
    0.0100    0.0100    0.0100    0.0100    0.0100    0.0100    0.0100    0.0100
    0.0100    0.0100    0.0100    0.0100    0.0100    0.0100    0.0100    0.0100
    0.0100    0.0100    0.0100    0.0100    0.0100    0.0100    0.0100    0.0100
    0.0100    0.0100    0.0100    0.0100    0.0100    0.0100    0.0100    0.0100
    0.0100    0.0100    0.0100    0.0100    0.0100    0.0100    0.0100    0.0100
    0.0100    0.0100    0.0100    0.0100    0.0100    0.0100    0.0100    0.0100
    0.0100    0.0100    0.0100    0.0100    0.0100    0.0100    0.0100    0.0100
    0.0100    0.0100    0.0100    0.0100    0.0100    0.0100    0.0100    0.0100
    0.0100    0.0100    0.0100    0.0100    0.0100    0.0100    0.0100    0.0100
    0.0100    0.0100    0.0100    0.0100    0.0100    0.0100    0.0100    0.0100
    0.0100    0.0100    0.0100    0.0100    0.0100    0.0100    0.0100    0.0100
    0.0100    0.0100    0.0100    0.0100    0.0100    0.0100    0.0100    0.0100
    0.0100    0.0100    0.0100    0.0100    0.0100    0.0100    0.0100    0.0100
    0.0100    0.0100    0.0100    0.0100    0.0100    0.0100    0.0100    0.0100
    0.0100    0.0100    0.0100    0.0100    0.0100    0.0100    0.0100    0.0100
    0.0100    0.0100    0.0100    0.0100    0.0100    0.0100    0.0100    0.0100
    0.0100    0.0100    0.0100    0.0100    0.0100    0.0100    0.0100    0.0100
    0.0100    0.0100    0.0100    0.0100    0.0100    0.0100    0.0100    0.0100
    0.0100    0.0100    0.0100    0.0100    0.0100    0.0100    0.0100    0.0100
    0.0100    0.0100    0.0100    0.0100    0.0100    0.0100    0.0100    0.0100
    0.0100    0.0100    0.0100    0.0100    0.0100    0.0100    0.0100    0.0100
    0.0100    0.0100    0.0100    0.0100    0.0100    0.0100    0.0100    0.0100
    0.0100    0.0100    0.0100    0.0100    0.0100    0.0100    0.0100    0.0100
    0.0100    0.0100    0.0100    0.0100    0.0100    0.0100    0.0100    0.0100
    0.0100    0.0100    0.0100    0.0100    0.0100    0.0100    0.0100    0.0100
    0.0100    0.0100    0.0100    0.0100    0.0100    0.0100    0.0100    0.0100
    0.0100    0.0100    0.0100    0.0100    0.0100    0.0100    0.0100    0.0100
    0.0100    0.0100    0.0100    0.0100    0.0100    0.0100    0.0100    0.0100
    0.0100    0.0100    0.0100    0.0100    0.0100    0.0100    0.0100    0.0100
    0.0100    0.0100    0.0100    0.0100    0.0100    0.0100    0.0100    0.0100
    0.0100    0.0100    0.0100    0.0100    0.0100    0.0100    0.0100    0.0100
    0.0100    0.0100    0.0100    0.0100    0.0100    0.0100    0.0100    0.0100
    0.0100    0.0100    0.0100    0.0100    0.0100    0.0100    0.0100    0.0100
    0.0100    0.0100    0.0100    0.0100    0.0100    0.0100    0.0100    0.0100
    0.0100    0.0100    0.0100    0.0100    0.0100    0.0100    0.0100    0.0100
    0.0100    0.0100    0.0100    0.0100    0.0100    0.0100    0.0100    0.0100
    0.0100    0.0100    0.0100    0.0100    0.0100    0.0100    0.0100    0.0100
    0.0100    0.0100    0.0100    0.0100    0.0100    0.0100    0.0100    0.0100
    0.0100    0.0100    0.0100    0.0100    0.0100    0.0100    0.0100    0.0100
    0.0100    0.0100    0.0100    0.0100    0.0100    0.0100    0.0100    0.0100
    0.0100    0.0100    0.0100    0.0100    0.0100    0.0100    0.0100    0.0100
    0.0100    0.0100    0.0100    0.0100    0.0100    0.0100    0.0100    0.0100
    0.0100    0.0100    0.0100    0.0100    0.0100    0.0100    0.0100    0.0100
    0.0100    0.0100    0.0100    0.0100    0.0100    0.0100    0.0100    0.0100
    0.0100    0.0100    0.0100    0.0100    0.0100    0.0100    0.0100    0.0100
    0.0100    0.0100    0.0100    0.0100    0.0100    0.0100    0.0100    0.0100
    0.0100    0.0100    0.0100    0.0100    0.0100    0.0100    0.0100    0.0100
    0.0100    0.0100    0.0100    0.0100    0.0100    0.0100    0.0100    0.0100
    0.0100    0.0100    0.0100    0.0100    0.0100    0.0100    0.0100    0.0100
    0.0100    0.0100    0.0100    0.0100    0.0100    0.0100    0.0100    0.0100
    0.0100    0.0100    0.0100    0.0100    0.0100    0.0100    0.0100    0.0100
    0.0100    0.0100    0.0100    0.0100    0.0100    0.0100    0.0100    0.0100
    0.0100    0.0100    0.0100    0.0100    0.0100    0.0100    0.0100    0.0100
    0.0100    0.0100    0.0100    0.0100    0.0100    0.0100    0.0100    0.0100
    0.0100    0.0100    0.0100    0.0100    0.0100    0.0100    0.0100    0.0100
    0.0100    0.0100    0.0100    0.0100    0.0100    0.0100    0.0100    0.0100
    0.0100    0.0100    0.0100    0.0100    0.0100    0.0100    0.0100    0.0100
    0.0100    0.0100    0.0100    0.0100    0.0100    0.0100    0.0100    0.0100
    0.0100    0.0100    0.0100    0.0100    0.0100    0.0100    0.0100    0.0100
    0.0100    0.0100    0.0100    0.0100    0.0100    0.0100    0.0100    0.0100
    0.0100    0.0100    0.0100    0.0100    0.0100    0.0100    0.0100    0.0100
    0.0100    0.0100    0.0100    0.0100    0.0100    0.0100    0.0100    0.0100
    0.0100    0.0100    0.0100    0.0100    0.0100    0.0100    0.0100    0.0100
    0.0100    0.0100
   </PP_RAB>
 </PP_MESH>
  <PP_LOCAL type="real"  size=" 602" columns="4">
   -3.8104294547E+01   -3.8100776843E+01   -3.8090384454E+01   -3.8072936326E+01
   -3.8048251409E+01   -3.8016095320E+01   -3.7976196766E+01   -3.7928265368E+01
   -3.7872009186E+01   -3.7807150522E+01   -3.7733438957E+01   -3.7650661059E+01
   -3.7558646620E+01   -3.7457271642E+01   -3.7346458542E+01   -3.7226174155E+01
   -3.7096426183E+01   -3.6957258667E+01   -3.6808747018E+01   -3.6650992974E+01
   -3.6484119818E+01   -3.6308268028E+01   -3.6123591480E+01   -3.5930254253E+01
   -3.5728428032E+01   -3.5518290053E+01   -3.5300021575E+01   -3.5073806764E+01
   -3.4839831954E+01   -3.4598285201E+01   -3.4349356074E+01   -3.4093235622E+01
   -3.3830116474E+01   -3.3560193029E+01   -3.3283661712E+01   -3.3000721260E+01
   -3.2711573025E+01   -3.2416421278E+01   -3.2115473519E+01   -3.1808940757E+01
   -3.1497037780E+01   -3.1179983418E+01   -3.0858000782E+01   -3.0531317492E+01
   -3.0200165899E+01   -2.9864783293E+01   -2.9525412115E+01   -2.9182300165E+01
   -2.8835700815E+01   -2.8485873216E+01   -2.8133082523E+01   -2.7777600193E+01
   -2.7419704150E+01   -2.7059679058E+01   -2.6697816731E+01   -2.6334416167E+01
   -2.5969784188E+01   -2.5604235396E+01   -2.5238092886E+01   -2.4871688141E+01
   -2.4505361926E+01   -2.4139464045E+01   -2.3774354231E+01   -2.3410402255E+01
   -2.3047988056E+01   -2.2687502755E+01   -2.2329348463E+01   -2.1973938650E+01
   -2.1621698798E+01   -2.1273066692E+01   -2.0928492558E+01   -2.0588439482E+01
   -2.0253383557E+01   -1.9923814821E+01   -1.9600236943E+01   -1.9283167726E+01
   -1.8973139409E+01   -1.8670698969E+01   -1.8376408421E+01   -1.8090845111E+01
   -1.7814602008E+01   -1.7548288259E+01   -1.7292520032E+01   -1.7047860057E+01
   -1.6814688560E+01   -1.6593117812E+01   -1.6382936806E+01   -1.6183596458E+01
   -1.5994239182E+01   -1.5813768989E+01   -1.5640946488E+01   -1.5474504794E+01
   -1.5313250093E+01   -1.5156140615E+01   -1.5002333425E+01   -1.4851198567E+01
   -1.4702306490E+01   -1.4555397932E+01   -1.4410345654E+01   -1.4267114483E+01
   -1.4125731902E+01   -1.3986252950E+01   -1.3848743461E+01   -1.3713267635E+01
   -1.3579880329E+01   -1.3448624214E+01   -1.3319524943E+01   -1.3192595209E+01
   -1.3067835323E+01   -1.2945235090E+01   -1.2824775291E+01   -1.2706428768E+01
   -1.2590163734E+01   -1.2475944442E+01   -1.2363732240E+01   -1.2253486271E+01
   -1.2145164976E+01   -1.2038726256E+01   -1.1934127903E+01   -1.1831328213E+01
   -1.1730286047E+01   -1.1630960777E+01   -1.1533313060E+01   -1.1437304308E+01
   -1.1342896646E+01   -1.1250053497E+01   -1.1158739121E+01   -1.1068918394E+01
   -1.0980557364E+01   -1.0893622826E+01   -1.0808082034E+01   -1.0723903361E+01
   -1.0641055733E+01   -1.0559508443E+01   -1.0479231938E+01   -1.0400196938E+01
   -1.0322374761E+01   -1.0245737650E+01   -1.0170258012E+01   -1.0095909244E+01
   -1.0022665260E+01   -9.9505003184E+00   -9.8793898745E+00   -9.8093094093E+00
   -9.7402355444E+00   -9.6721453703E+00   -9.6050164706E+00   -9.5388276409E+00
   -9.4735575047E+00   -9.4091863625E+00   -9.3456943499E+00   -9.2830628162E+00
   -9.2212735445E+00   -9.1603089046E+00   -9.1001522608E+00   -9.0407869871E+00
   -8.9821979079E+00   -8.9243693839E+00   -8.8672874727E+00   -8.8109376901E+00
   -8.7553069632E+00   -8.7003819193E+00   -8.6461502419E+00   -8.5925995037E+00
   -8.5397180417E+00   -8.4874941909E+00   -8.4359168311E+00   -8.3849748793E+00
   -8.3346576399E+00   -8.2849544449E+00   -8.2358549013E+00   -8.1873486115E+00
   -8.1394253617E+00   -8.0920749092E+00   -8.0452870802E+00   -7.9990517176E+00
   -7.9533588003E+00   -7.9081982670E+00   -7.8635609627E+00   -7.8194372632E+00
   -7.7758188065E+00   -7.7326967305E+00   -7.6900626652E+00   -7.6479078655E+00
   -7.6062243864E+00   -7.5650040832E+00   -7.5242391784E+00   -7.4839219325E+00
   -7.4440447388E+00   -7.4046003358E+00   -7.3655812705E+00   -7.3269807097E+00
   -7.2887914056E+00   -7.2510068134E+00   -7.2136200848E+00   -7.1766247637E+00
   -7.1400144714E+00   -7.1037828101E+00   -7.0679238576E+00   -7.0324313003E+00
   -6.9972995269E+00   -6.9625225988E+00   -6.9280949127E+00   -6.8940110106E+00
   -6.8602652708E+00   -6.8268526388E+00   -6.7937676889E+00   -6.7610054774E+00
   -6.7285610155E+00   -6.6964292882E+00   -6.6646057363E+00   -6.6330854473E+00
   -6.6018640092E+00   -6.5709369250E+00   -6.5402996653E+00   -6.5099481496E+00
   -6.4798779643E+00   -6.4500851100E+00   -6.4205656022E+00   -6.3913152851E+00
   -6.3623305377E+00   -6.3336074342E+00   -6.3051422756E+00   -6.2769315718E+00
   -6.2489715399E+00   -6.2212588961E+00   -6.1937902230E+00   -6.1665620254E+00
   -6.1395712500E+00   -6.1128145758E+00   -6.0862888591E+00   -6.0599911671E+00
   -6.0339183120E+00   -6.0080674629E+00   -5.9824357987E+00   -5.9570202704E+00
   -5.9318183167E+00   -5.9068271963E+00   -5.8820440910E+00   -5.8574665781E+00
   -5.8330920276E+00   -5.8089178452E+00   -5.7849417161E+00   -5.7611611291E+00
   -5.7375736823E+00   -5.7141771645E+00   -5.6909691816E+00   -5.6679474946E+00
   -5.6451099926E+00   -5.6224543964E+00   -5.5999786028E+00   -5.5776805982E+00
   -5.5555582157E+00   -5.5336094629E+00   -5.5118324218E+00   -5.4902250338E+00
   -5.4687853961E+00   -5.4475116839E+00   -5.4264019431E+00   -5.4054543420E+00
   -5.3846671464E+00   -5.3640385034E+00   -5.3435666359E+00   -5.3232498978E+00
   -5.3030865346E+00   -5.2830748097E+00   -5.2632131626E+00   -5.2434999344E+00
   -5.2239334173E+00   -5.2045121333E+00   -5.1852345113E+00   -5.1660988811E+00
   -5.1471038255E+00   -5.1282478456E+00   -5.1095293615E+00   -5.0909469532E+00
   -5.0724992104E+00   -5.0541846448E+00   -5.0360018234E+00   -5.0179494231E+00
   -5.0000260493E+00   -4.9822302475E+00   -4.9645607797E+00   -4.9470163200E+00
   -4.9295954673E+00   -4.9122969852E+00   -4.8951196295E+00   -4.8780620937E+00
   -4.8611230956E+00   -4.8443014847E+00   -4.8275960445E+00   -4.8110054692E+00
   -4.7945286692E+00   -4.7781644902E+00   -4.7619117241E+00   -4.7457692142E+00
   -4.7297359070E+00   -4.7138106904E+00   -4.6979923625E+00   -4.6822799358E+00
   -4.6666723588E+00   -4.6511685342E+00   -4.6357673848E+00   -4.6204679659E+00
   -4.6052692656E+00   -4.5901701970E+00   -4.5751698290E+00   -4.5602672261E+00
   -4.5454614161E+00   -4.5307513559E+00   -4.5161362196E+00   -4.5016150902E+00
   -4.4871870111E+00   -4.4728510597E+00   -4.4586064273E+00   -4.4444522428E+00
   -4.4303875700E+00   -4.4164115940E+00   -4.4025235236E+00   -4.3887225311E+00
   -4.3750077092E+00   -4.3613783312E+00   -4.3478336236E+00   -4.3343727966E+00
   -4.3209949870E+00   -4.3076995229E+00   -4.2944856532E+00   -4.2813526137E+00
   -4.2682996055E+00   -4.2553259738E+00   -4.2424309990E+00   -4.2296139406E+00
   -4.2168740418E+00   -4.2042106833E+00   -4.1916231797E+00   -4.1791108237E+00
   -4.1666729006E+00   -4.1543088168E+00   -4.1420179191E+00   -4.1297995337E+00
   -4.1176529748E+00   -4.1055776796E+00   -4.0935730252E+00   -4.0816383739E+00
   -4.0697730592E+00   -4.0579765506E+00   -4.0462482542E+00   -4.0345875707E+00
   -4.0229938435E+00   -4.0114665762E+00   -4.0000052025E+00   -3.9886091563E+00
   -3.9772778045E+00   -3.9660106641E+00   -3.9548072024E+00   -3.9436668797E+00
   -3.9325891053E+00   -3.9215733843E+00   -3.9106192250E+00   -3.8997261128E+00
   -3.8888935017E+00   -3.8781208771E+00   -3.8674077896E+00   -3.8567537483E+00
   -3.8461582545E+00   -3.8356207672E+00   -3.8251408793E+00   -3.8147181230E+00
   -3.8043520304E+00   -3.7940420829E+00   -3.7837878618E+00   -3.7735889388E+00
   -3.7634448679E+00   -3.7533551807E+00   -3.7433194151E+00   -3.7333371908E+00
   -3.7234080826E+00   -3.7135316653E+00   -3.7037074582E+00   -3.6939350985E+00
   -3.6842141903E+00   -3.6745443284E+00   -3.6649250856E+00   -3.6553560414E+00
   -3.6458368519E+00   -3.6363671306E+00   -3.6269464908E+00   -3.6175744995E+00
   -3.6082508142E+00   -3.5989750821E+00   -3.5897469347E+00   -3.5805659963E+00
   -3.5714318544E+00   -3.5623442105E+00   -3.5533027132E+00   -3.5443070112E+00
   -3.5353567275E+00   -3.5264515087E+00   -3.5175910543E+00   -3.5087750291E+00
   -3.5000030982E+00   -3.4912748872E+00   -3.4825900918E+00   -3.4739484118E+00
   -3.4653495276E+00   -3.4567931200E+00   -3.4482788204E+00   -3.4398063641E+00
   -3.4313754539E+00   -3.4229857851E+00   -3.4146370527E+00   -3.4063288993E+00
   -3.3980610881E+00   -3.3898333287E+00   -3.3816453309E+00   -3.3734967992E+00
   -3.3653874011E+00   -3.3573169082E+00   -3.3492850437E+00   -3.3412915308E+00
   -3.3333360865E+00   -3.3254183953E+00   -3.3175382395E+00   -3.3096953552E+00
   -3.3018894785E+00   -3.2941203416E+00   -3.2863876382E+00   -3.2786911638E+00
   -3.2710306668E+00   -3.2634058955E+00   -3.2558165984E+00   -3.2482624754E+00
   -3.2407433335E+00   -3.2332589338E+00   -3.2258090367E+00   -3.2183934022E+00
   -3.2110117505E+00   -3.2036638813E+00   -3.1963495752E+00   -3.1890686036E+00
   -3.1818207377E+00   -3.1746057200E+00   -3.1674233370E+00   -3.1602733905E+00
   -3.1531556624E+00   -3.1460699346E+00   -3.1390159744E+00   -3.1319935490E+00
   -3.1250024830E+00   -3.1180425684E+00   -3.1111135975E+00   -3.1042153623E+00
   -3.0973476113E+00   -3.0905101877E+00   -3.0837028949E+00   -3.0769255349E+00
   -3.0701779094E+00   -3.0634597955E+00   -3.0567710041E+00   -3.0501113668E+00
   -3.0434806947E+00   -3.0368787987E+00   -3.0303054867E+00   -3.0237605333E+00
   -3.0172437985E+00   -3.0107551021E+00   -3.0042942639E+00   -2.9978611038E+00
   -2.9914554189E+00   -2.9850770357E+00   -2.9787258028E+00   -2.9724015485E+00
   -2.9661041009E+00   -2.9598332884E+00   -2.9535889011E+00   -2.9473708090E+00
   -2.9411788519E+00   -2.9350128660E+00   -2.9288726876E+00   -2.9227581429E+00
   -2.9166690489E+00   -2.9106052804E+00   -2.9045666813E+00   -2.8985530955E+00
   -2.8925643668E+00   -2.8866003191E+00   -2.8806607996E+00   -2.8747456796E+00
   -2.8688548102E+00   -2.8629880426E+00   -2.8571452280E+00   -2.8513261908E+00
   -2.8455308010E+00   -2.8397589290E+00   -2.8340104331E+00   -2.8282851713E+00
   -2.8225830017E+00   -2.8169037521E+00   -2.8112473082E+00   -2.8056135425E+00
   -2.8000023197E+00   -2.7944135045E+00   -2.7888469616E+00   -2.7833025245E+00
   -2.7777800884E+00   -2.7722795302E+00   -2.7668007209E+00   -2.7613435315E+00
   -2.7559078330E+00   -2.7504934668E+00   -2.7451003316E+00   -2.7397283112E+00
   -2.7343772825E+00   -2.7290471225E+00   -2.7237377083E+00   -2.7184488913E+00
   -2.7131805681E+00   -2.7079326314E+00   -2.7027049639E+00   -2.6974974486E+00
   -2.6923099679E+00   -2.6871423858E+00   -2.6819945909E+00   -2.6768664875E+00
   -2.6717579636E+00   -2.6666689075E+00   -2.6615992073E+00   -2.6565487410E+00
   -2.6515173850E+00   -2.6465050562E+00   -2.6415116482E+00   -2.6365370542E+00
   -2.6315811678E+00   -2.6266438824E+00   -2.6217250591E+00   -2.6168246279E+00
   -2.6119424875E+00   -2.6070785365E+00   -2.6022326732E+00   -2.5974047960E+00
   -2.5925947843E+00   -2.5878025446E+00   -2.5830279936E+00   -2.5782710344E+00
   -2.5735315700E+00   -2.5688095037E+00   -2.5641047348E+00   -2.5594171429E+00
   -2.5547466633E+00   -2.5500932036E+00   -2.5454566714E+00   -2.5408369744E+00
   -2.5362340203E+00   -2.5316476991E+00   -2.5270779249E+00   -2.5225246230E+00
   -2.5179877053E+00   -2.5134670839E+00   -2.5089626706E+00   -2.5044743774E+00
   -2.5000020884E+00   -2.4955457451E+00   -2.4911052654E+00   -2.4866805656E+00
   -2.4822715616E+00   -2.4778781694E+00   -2.4735002985E+00   -2.4691378497E+00
   -2.4647907655E+00   -2.4604589659E+00   -2.4561423709E+00   -2.4518409004E+00
   -2.4475544745E+00   -2.4432830004E+00   -2.4390263960E+00   -2.4347846012E+00
   -2.4305575396E+00   -2.4263451351E+00   -2.4221473112E+00   -2.4179639917E+00
   -2.4137950843E+00   -2.4096405182E+00   -2.4055002330E+00   -2.4013741559E+00
   -2.3972622141E+00   -2.3931643349E+00   -2.3890804456E+00   -2.3850104565E+00
   -2.3809543029E+00   -2.3769119263E+00   -2.3728832572E+00   -2.3688682263E+00
   -2.3648667642E+00   -2.3608788015E+00   -2.3569042534E+00   -2.3529430563E+00
   -2.3489951556E+00   -2.3450604850E+00   -2.3411389785E+00   -2.3372305699E+00
   -2.3333351930E+00   -2.3294527698E+00
  </PP_LOCAL>
 <PP_NONLOCAL>
   <PP_BETA.1
       type="real"
       size=" 602"
       columns="4"
       index="1"
       angular_momentum="0"
       cutoff_radius_index=" 326"
       cutoff_radius="    3.2500000000E+00" >
    0.0000000000E+00    4.7453057611E-02    9.4853117328E-02    1.4214722126E-01
    1.8928249168E-01    2.3620617159E-01    2.8286566575E-01    3.2920858239E-01
    3.7518277591E-01    4.2073639042E-01    4.6581790459E-01    5.1037617776E-01
    5.5436049753E-01    5.9772062896E-01    6.4040686544E-01    6.8237008136E-01
    7.2356178684E-01    7.6393418424E-01    8.0344022694E-01    8.4203368009E-01
    8.7966918370E-01    9.1630231769E-01    9.5188966939E-01    9.8638890303E-01
    1.0197588316E+00    1.0519594905E+00    1.0829522137E+00    1.1126997115E+00
    1.1411661502E+00    1.1683172338E+00    1.1941202871E+00    1.2185443403E+00
    1.2415602147E+00    1.2631406093E+00    1.2832601893E+00    1.3018956736E+00
    1.3190259243E+00    1.3346320333E+00    1.3486974141E+00    1.3612078865E+00
    1.3721517646E+00    1.3815199419E+00    1.3893059754E+00    1.3955061670E+00
    1.4001196428E+00    1.4031484291E+00    1.4045975250E+00    1.4044749713E+00
    1.4027919147E+00    1.3995626657E+00    1.3948047531E+00    1.3885389781E+00
    1.3807894456E+00    1.3715836016E+00    1.3609522706E+00    1.3489296524E+00
    1.3355533586E+00    1.3208643864E+00    1.3049071336E+00    1.2877293542E+00
    1.2693821521E+00    1.2499199152E+00    1.2294002763E+00    1.2078840368E+00
    1.1854350871E+00    1.1621203094E+00    1.1380094668E+00    1.1131750836E+00
    1.0876922952E+00    1.0616386873E+00    1.0350941296E+00    1.0081405810E+00
    9.8086189664E-01    9.5334354501E-01    9.2567240907E-01    8.9793650473E-01
    8.7022469335E-01    8.4262637382E-01    8.1523115405E-01    7.8812850126E-01
    7.6140737605E-01    7.3515586496E-01    7.0945992930E-01    6.8439806663E-01
    6.6003036967E-01    6.3639149470E-01    6.1348644282E-01    5.9128999227E-01
    5.6975000747E-01    5.4879408451E-01    5.2833841122E-01    5.0829775155E-01
    4.8859399815E-01    4.6916257028E-01    4.4995590663E-01    4.3094413620E-01
    4.1211353549E-01    3.9346361579E-01    3.7500365832E-01    3.5674929185E-01