<UPF version="2.0.1">
  <PP_INFO>

 F_ONCV_PBE_FR-1.0.upf

 This pseudopotential file has been produced using the code
 ONCVPSP  (Optimized Norm-Conservinng Vanderbilt PSeudopotential)
 fully-relativistic version 2.1.1, 03/26/2014 by D. R. Hamann
 The code is available through a link at URL www.mat-simresearch.com.
 Documentation with the package provides a full description of the
 input data below.

 While it is not required under the terms of the GNU GPL, it is
 suggested that you cite D. R. Hamann, Phys. Rev. B 88, 085117 (2013)
 in any publication using these pseudopotentials.

 -----

 This pseudopotential was produced with the SG15 1.0 and/or 1.1
 parameter sets, the Schlipf-Gygi norm-conserving pseudopotential
 library. For details of the construction and testing of the
 pseudopotential please refer to:

 M. Schlipf, F. Gygi, Comp. Phys. Comm. 196, 36 (2015)
 http://dx.doi.org/10.1016/j.cpc.2015.05.011

 The above authors kindly ask that you include this reference in all
 publications associated to this pseudopotential.

 Please note this fully-relativistic version does not employ the
 above self-consistent procedure at the fully-relativistic level.

 -----

 This pseudopotential was produced by Peter Scherpelz for the purpose
 of performing GW calculations with spin-orbit-coupling. Please see
 the publication:

 P. Scherpelz, M. Govoni, I. Hamada, G. Galli; J. Chem. Theory Comput. (2016)
 http://dx.doi.org/10.1021/acs.jctc.6b00114

 If you use these pseudopotentials in your work, we also kindly ask
 that you cite the above publication.

 -----

 This work is licensed under the Creative Commons Attribution-ShareAlike 
 4.0 International License. To view a copy of this license, visit 
 http://creativecommons.org/licenses/by-sa/4.0/ or send a letter to 
 Creative Commons, PO Box 1866, Mountain View, CA 94042, USA.

 The SG15 library is Copyright 2015 The Regents of the University of
 California.  Further modifications of these files are Copyright 2016
 Peter Scherpelz.

    <PP_INPUTFILE>
# ATOM AND REFERENCE CONFIGURATION
# atsym  z    nc    nv    iexc   psfile
  F  9.00     1     2     4      upf
#
#   n    l    f        energy (Ha)
    1    0    2.00
    2    0    2.00
    2    1    5.00
#
# PSEUDOPOTENTIAL AND OPTIMIZATION
# lmax
    1
#
#   l,   rc,     ep,   ncon, nbas, qcut
    0    1.58   -1.10    5    8    8.73
    1    1.66   -0.41    5    8    8.70
#
# LOCAL POTENTIAL
# lloc, lpopt,  rc(5),   dvloc0
    4    5      0.97       0.00
#
# VANDERBILT-KLEINMAN-BYLANDER PROJECTORs
# l, nproj, debl
    0    2    1.5112
    1    2    1.5309
#
# MODEL CORE CHARGE
# icmod, fcfact
    0    0.00
#
# LOG DERIVATIVE ANALYSIS
# epsh1, epsh2, depsh
   -5.00    3.00    0.02
#
# OUTPUT GRID
# rlmax, drl
    6.00    0.01
#
# TEST CONFIGURATIONS
# ncnf
    0
# nvcnf
#   n    l    f
    </PP_INPUTFILE>
  </PP_INFO>
  <!--                               -->
  <!-- END OF HUMAN READABLE SECTION -->
  <!--                               -->
    <PP_HEADER
       generated="Generated using ONCVPSP code by D. R. Hamann"
       author="anonymous"
       date="150703"
       comment=""
       element="F "
       pseudo_type="NC"
       relativistic="full"
       is_ultrasoft="F"
       is_paw="F"
       is_coulomb="F"
       has_so="T"
       has_wfc="F"
       has_gipaw="F"
       core_correction="F"
       functional="PBE"
       z_valence="    7.00"
       total_psenergy="  -2.37362927658E+01"
       rho_cutoff="   6.01000000000E+00"
       l_max="1"
       l_local="-1"
       mesh_size="   602"
       number_of_wfc="0"
       number_of_proj="6"/>
 <PP_MESH>
   <PP_R type="real"  size=" 602" columns="8">
    0.0000    0.0100    0.0200    0.0300    0.0400    0.0500    0.0600    0.0700
    0.0800    0.0900    0.1000    0.1100    0.1200    0.1300    0.1400    0.1500
    0.1600    0.1700    0.1800    0.1900    0.2000    0.2100    0.2200    0.2300
    0.2400    0.2500    0.2600    0.2700    0.2800    0.2900    0.3000    0.3100
    0.3200    0.3300    0.3400    0.3500    0.3600    0.3700    0.3800    0.3900
    0.4000    0.4100    0.4200    0.4300    0.4400    0.4500    0.4600    0.4700
    0.4800    0.4900    0.5000    0.5100    0.5200    0.5300    0.5400    0.5500
    0.5600    0.5700    0.5800    0.5900    0.6000    0.6100    0.6200    0.6300
    0.6400    0.6500    0.6600    0.6700    0.6800    0.6900    0.7000    0.7100
    0.7200    0.7300    0.7400    0.7500    0.7600    0.7700    0.7800    0.7900
    0.8000    0.8100    0.8200    0.8300    0.8400    0.8500    0.8600    0.8700
    0.8800    0.8900    0.9000    0.9100    0.9200    0.9300    0.9400    0.9500
    0.9600    0.9700    0.9800    0.9900    1.0000    1.0100    1.0200    1.0300
    1.0400    1.0500    1.0600    1.0700    1.0800    1.0900    1.1000    1.1100
    1.1200    1.1300    1.1400    1.1500    1.1600    1.1700    1.1800    1.1900
    1.2000    1.2100    1.2200    1.2300    1.2400    1.2500    1.2600    1.2700
    1.2800    1.2900    1.3000    1.3100    1.3200    1.3300    1.3400    1.3500
    1.3600    1.3700    1.3800    1.3900    1.4000    1.4100    1.4200    1.4300
    1.4400    1.4500    1.4600    1.4700    1.4800    1.4900    1.5000    1.5100
    1.5200    1.5300    1.5400    1.5500    1.5600    1.5700    1.5800    1.5900
    1.6000    1.6100    1.6200    1.6300    1.6400    1.6500    1.6600    1.6700
    1.6800    1.6900    1.7000    1.7100    1.7200    1.7300    1.7400    1.7500
    1.7600    1.7700    1.7800    1.7900    1.8000    1.8100    1.8200    1.8300
    1.8400    1.8500    1.8600    1.8700    1.8800    1.8900    1.9000    1.9100
    1.9200    1.9300    1.9400    1.9500    1.9600    1.9700    1.9800    1.9900
    2.0000    2.0100    2.0200    2.0300    2.0400    2.0500    2.0600    2.0700
    2.0800    2.0900    2.1000    2.1100    2.1200    2.1300    2.1400    2.1500
    2.1600    2.1700    2.1800    2.1900    2.2000    2.2100    2.2200    2.2300
    2.2400    2.2500    2.2600    2.2700    2.2800    2.2900    2.3000    2.3100
    2.3200    2.3300    2.3400    2.3500    2.3600    2.3700    2.3800    2.3900
    2.4000    2.4100    2.4200    2.4300    2.4400    2.4500    2.4600    2.4700
    2.4800    2.4900    2.5000    2.5100    2.5200    2.5300    2.5400    2.5500
    2.5600    2.5700    2.5800    2.5900    2.6000    2.6100    2.6200    2.6300
    2.6400    2.6500    2.6600    2.6700    2.6800    2.6900    2.7000    2.7100
    2.7200    2.7300    2.7400    2.7500    2.7600    2.7700    2.7800    2.7900
    2.8000    2.8100    2.8200    2.8300    2.8400    2.8500    2.8600    2.8700
    2.8800    2.8900    2.9000    2.9100    2.9200    2.9300    2.9400    2.9500
    2.9600    2.9700    2.9800    2.9900    3.0000    3.0100    3.0200    3.0300
    3.0400    3.0500    3.0600    3.0700    3.0800    3.0900    3.1000    3.1100
    3.1200    3.1300    3.1400    3.1500    3.1600    3.1700    3.1800    3.1900
    3.2000    3.2100    3.2200    3.2300    3.2400    3.2500    3.2600    3.2700
    3.2800    3.2900    3.3000    3.3100    3.3200    3.3300    3.3400    3.3500
    3.3600    3.3700    3.3800    3.3900    3.4000    3.4100    3.4200    3.4300
    3.4400    3.4500    3.4600    3.4700    3.4800    3.4900    3.5000    3.5100
    3.5200    3.5300    3.5400    3.5500    3.5600    3.5700    3.5800    3.5900
    3.6000    3.6100    3.6200    3.6300    3.6400    3.6500    3.6600    3.6700
    3.6800    3.6900    3.7000    3.7100    3.7200    3.7300    3.7400    3.7500
    3.7600    3.7700    3.7800    3.7900    3.8000    3.8100    3.8200    3.8300
    3.8400    3.8500    3.8600    3.8700    3.8800    3.8900    3.9000    3.9100
    3.9200    3.9300    3.9400    3.9500    3.9600    3.9700    3.9800    3.9900
    4.0000    4.0100    4.0200    4.0300    4.0400    4.0500    4.0600    4.0700
    4.0800    4.0900    4.1000    4.1100    4.1200    4.1300    4.1400    4.1500
    4.1600    4.1700    4.1800    4.1900    4.2000    4.2100    4.2200    4.2300
    4.2400    4.2500    4.2600    4.2700    4.2800    4.2900    4.3000    4.3100
    4.3200    4.3300    4.3400    4.3500    4.3600    4.3700    4.3800    4.3900
    4.4000    4.4100    4.4200    4.4300    4.4400    4.4500    4.4600    4.4700
    4.4800    4.4900    4.5000    4.5100    4.5200    4.5300    4.5400    4.5500
    4.5600    4.5700    4.5800    4.5900    4.6000    4.6100    4.6200    4.6300
    4.6400    4.6500    4.6600    4.6700    4.6800    4.6900    4.7000    4.7100
    4.7200    4.7300    4.7400    4.7500    4.7600    4.7700    4.7800    4.7900
    4.8000    4.8100    4.8200    4.8300    4.8400    4.8500    4.8600    4.8700
    4.8800    4.8900    4.9000    4.9100    4.9200    4.9300    4.9400    4.9500
    4.9600    4.9700    4.9800    4.9900    5.0000    5.0100    5.0200    5.0300
    5.0400    5.0500    5.0600    5.0700    5.0800    5.0900    5.1000    5.1100
    5.1200    5.1300    5.1400    5.1500    5.1600    5.1700    5.1800    5.1900
    5.2000    5.2100    5.2200    5.2300    5.2400    5.2500    5.2600    5.2700
    5.2800    5.2900    5.3000    5.3100    5.3200    5.3300    5.3400    5.3500
    5.3600    5.3700    5.3800    5.3900    5.4000    5.4100    5.4200    5.4300
    5.4400    5.4500    5.4600    5.4700    5.4800    5.4900    5.5000    5.5100
    5.5200    5.5300    5.5400    5.5500    5.5600    5.5700    5.5800    5.5900
    5.6000    5.6100    5.6200    5.6300    5.6400    5.6500    5.6600    5.6700
    5.6800    5.6900    5.7000    5.7100    5.7200    5.7300    5.7400    5.7500
    5.7600    5.7700    5.7800    5.7900    5.8000    5.8100    5.8200    5.8300
    5.8400    5.8500    5.8600    5.8700    5.8800    5.8900    5.9000    5.9100
    5.9200    5.9300    5.9400    5.9500    5.9600    5.9700    5.9800    5.9900
    6.0000    6.0100
   </PP_R>
   <PP_RAB type="real"  size=" 602" columns="8">
    0.0100    0.0100    0.0100    0.0100    0.0100    0.0100    0.0100    0.0100
    0.0100    0.0100    0.0100    0.0100    0.0100    0.0100    0.0100    0.0100
    0.0100    0.0100    0.0100    0.0100    0.0100    0.0100    0.0100    0.0100
    0.0100    0.0100    0.0100    0.0100    0.0100    0.0100    0.0100    0.0100
    0.0100    0.0100    0.0100    0.0100    0.0100    0.0100    0.0100    0.0100
    0.0100    0.0100    0.0100    0.0100    0.0100    0.0100    0.0100    0.0100
    0.0100    0.0100    0.0100    0.0100    0.0100    0.0100    0.0100    0.0100
    0.0100    0.0100    0.0100    0.0100    0.0100    0.0100    0.0100    0.0100
    0.0100    0.0100    0.0100    0.0100    0.0100    0.0100    0.0100    0.0100
    0.0100    0.0100    0.0100    0.0100    0.0100    0.0100    0.0100    0.0100
    0.0100    0.0100    0.0100    0.0100    0.0100    0.0100    0.0100    0.0100
    0.0100    0.0100    0.0100    0.0100    0.0100    0.0100    0.0100    0.0100
    0.0100    0.0100    0.0100    0.0100    0.0100    0.0100    0.0100    0.0100
    0.0100    0.0100    0.0100    0.0100    0.0100    0.0100    0.0100    0.0100
    0.0100    0.0100    0.0100    0.0100    0.0100    0.0100    0.0100    0.0100
    0.0100    0.0100    0.0100    0.0100    0.0100    0.0100    0.0100    0.0100
    0.0100    0.0100    0.0100    0.0100    0.0100    0.0100    0.0100    0.0100
    0.0100    0.0100    0.0100    0.0100    0.0100    0.0100    0.0100    0.0100
    0.0100    0.0100    0.0100    0.0100    0.0100    0.0100    0.0100    0.0100
    0.0100    0.0100    0.0100    0.0100    0.0100    0.0100    0.0100    0.0100
    0.0100    0.0100    0.0100    0.0100    0.0100    0.0100    0.0100    0.0100
    0.0100    0.0100    0.0100    0.0100    0.0100    0.0100    0.0100    0.0100
    0.0100    0.0100    0.0100    0.0100    0.0100    0.0100    0.0100    0.0100
    0.0100    0.0100    0.0100    0.0100    0.0100    0.0100    0.0100    0.0100
    0.0100    0.0100    0.0100    0.0100    0.0100    0.0100    0.0100    0.0100
    0.0100    0.0100    0.0100    0.0100    0.0100    0.0100    0.0100    0.0100
    0.0100    0.0100    0.0100    0.0100    0.0100    0.0100    0.0100    0.0100
    0.0100    0.0100    0.0100    0.0100    0.0100    0.0100    0.0100    0.0100
    0.0100    0.0100    0.0100    0.0100    0.0100    0.0100    0.0100    0.0100
    0.0100    0.0100    0.0100    0.0100    0.0100    0.0100    0.0100    0.0100
    0.0100    0.0100    0.0100    0.0100    0.0100    0.0100    0.0100    0.0100
    0.0100    0.0100    0.0100    0.0100    0.0100    0.0100    0.0100    0.0100
    0.0100    0.0100    0.0100    0.0100    0.0100    0.0100    0.0100    0.0100
    0.0100    0.0100    0.0100    0.0100    0.0100    0.0100    0.0100    0.0100
    0.0100    0.0100    0.0100    0.0100    0.0100    0.0100    0.0100    0.0100
    0.0100    0.0100    0.0100    0.0100    0.0100    0.0100    0.0100    0.0100
    0.0100    0.0100    0.0100    0.0100    0.0100    0.0100    0.0100    0.0100
    0.0100    0.0100    0.0100    0.0100    0.0100    0.0100    0.0100    0.0100
    0.0100    0.0100    0.0100    0.0100    0.0100    0.0100    0.0100    0.0100
    0.0100    0.0100    0.0100    0.0100    0.0100    0.0100    0.0100    0.0100
    0.0100    0.0100    0.0100    0.0100    0.0100    0.0100    0.0100    0.0100
    0.0100    0.0100    0.0100    0.0100    0.0100    0.0100    0.0100    0.0100
    0.0100    0.0100    0.0100    0.0100    0.0100    0.0100    0.0100    0.0100
    0.0100    0.0100    0.0100    0.0100    0.0100    0.0100    0.0100    0.0100
    0.0100    0.0100    0.0100    0.0100    0.0100    0.0100    0.0100    0.0100
    0.0100    0.0100    0.0100    0.0100    0.0100    0.0100    0.0100    0.0100
    0.0100    0.0100    0.0100    0.0100    0.0100    0.0100    0.0100    0.0100
    0.0100    0.0100    0.0100    0.0100    0.0100    0.0100    0.0100    0.0100
    0.0100    0.0100    0.0100    0.0100    0.0100    0.0100    0.0100    0.0100
    0.0100    0.0100    0.0100    0.0100    0.0100    0.0100    0.0100    0.0100
    0.0100    0.0100    0.0100    0.0100    0.0100    0.0100    0.0100    0.0100
    0.0100    0.0100    0.0100    0.0100    0.0100    0.0100    0.0100    0.0100
    0.0100    0.0100    0.0100    0.0100    0.0100    0.0100    0.0100    0.0100
    0.0100    0.0100    0.0100    0.0100    0.0100    0.0100    0.0100    0.0100
    0.0100    0.0100    0.0100    0.0100    0.0100    0.0100    0.0100    0.0100
    0.0100    0.0100    0.0100    0.0100    0.0100    0.0100    0.0100    0.0100
    0.0100    0.0100    0.0100    0.0100    0.0100    0.0100    0.0100    0.0100
    0.0100    0.0100    0.0100    0.0100    0.0100    0.0100    0.0100    0.0100
    0.0100    0.0100    0.0100    0.0100    0.0100    0.0100    0.0100    0.0100
    0.0100    0.0100    0.0100    0.0100    0.0100    0.0100    0.0100    0.0100
    0.0100    0.0100    0.0100    0.0100    0.0100    0.0100    0.0100    0.0100
    0.0100    0.0100    0.0100    0.0100    0.0100    0.0100    0.0100    0.0100
    0.0100    0.0100    0.0100    0.0100    0.0100    0.0100    0.0100    0.0100
    0.0100    0.0100    0.0100    0.0100    0.0100    0.0100    0.0100    0.0100
    0.0100    0.0100    0.0100    0.0100    0.0100    0.0100    0.0100    0.0100
    0.0100    0.0100    0.0100    0.0100    0.0100    0.0100    0.0100    0.0100
    0.0100    0.0100    0.0100    0.0100    0.0100    0.0100    0.0100    0.0100
    0.0100    0.0100    0.0100    0.0100    0.0100    0.0100    0.0100    0.0100
    0.0100    0.0100    0.0100    0.0100    0.0100    0.0100    0.0100    0.0100
    0.0100    0.0100    0.0100    0.0100    0.0100    0.0100    0.0100    0.0100
    0.0100    0.0100    0.0100    0.0100    0.0100    0.0100    0.0100    0.0100
    0.0100    0.0100    0.0100    0.0100    0.0100    0.0100    0.0100    0.0100
    0.0100    0.0100    0.0100    0.0100    0.0100    0.0100    0.0100    0.0100
    0.0100    0.0100    0.0100    0.0100    0.0100    0.0100    0.0100    0.0100
    0.0100    0.0100    0.0100    0.0100    0.0100    0.0100    0.0100    0.0100
    0.0100    0.0100
   </PP_RAB>
 </PP_MESH>
  <PP_LOCAL type="real"  size=" 602" columns="4">
   -3.1533940514E+01   -3.1596706336E+01   -3.1739092625E+01   -3.1907439578E+01
   -3.2048087389E+01   -3.2133619195E+01   -3.2159860158E+01   -3.2134887693E+01
   -3.2070326968E+01   -3.1976930831E+01   -3.1863099201E+01   -3.1734824134E+01
   -3.1596146928E+01   -3.1449699421E+01   -3.1297167692E+01   -3.1139638683E+01
   -3.0977838650E+01   -3.0812286938E+01   -3.0643389289E+01   -3.0471490629E+01
   -3.0296902275E+01   -3.0119913845E+01   -2.9940796726E+01   -2.9759803269E+01
   -2.9577164165E+01   -2.9393085233E+01   -2.9207744202E+01   -2.9021287568E+01
   -2.8833827599E+01   -2.8645439332E+01   -2.8456157653E+01   -2.8265974585E+01
   -2.8074837101E+01   -2.7882645829E+01   -2.7689255140E+01   -2.7494475520E+01
   -2.7298077985E+01   -2.7099801845E+01   -2.6899365064E+01   -2.6696477385E+01
   -2.6490855533E+01   -2.6282239354E+01   -2.6070407734E+01   -2.5855192894E+01
   -2.5636491775E+01   -2.5414273487E+01   -2.5188582236E+01   -2.4959535654E+01
   -2.4727318853E+01   -2.4492175582E+01   -2.4254396719E+01   -2.4014307511E+01
   -2.3772255318E+01   -2.3528598079E+01   -2.3283694112E+01   -2.3037894077E+01
   -2.2791534819E+01   -2.2544935348E+01   -2.2298394201E+01   -2.2052188609E+01
   -2.1806574654E+01   -2.1561787718E+01   -2.1318044777E+01   -2.1075544938E+01
   -2.0834472062E+01   -2.0594996499E+01   -2.0357276036E+01   -2.0121458008E+01
   -1.9887680398E+01   -1.9656072820E+01   -1.9426757208E+01   -1.9199848728E+01
   -1.8975456155E+01   -1.8753682212E+01   -1.8534623818E+01   -1.8318371991E+01
   -1.8105012078E+01   -1.7894623614E+01   -1.7687280209E+01   -1.7483049385E+01
   -1.7281992380E+01   -1.7084163930E+01   -1.6889612027E+01   -1.6698377673E+01
   -1.6510494617E+01   -1.6325989091E+01   -1.6144879538E+01   -1.5967176346E+01
   -1.5792881569E+01   -1.5621988658E+01   -1.5454482182E+01   -1.5290337553E+01
   -1.5129520743E+01   -1.4971988008E+01   -1.4817685595E+01   -1.4666549460E+01
   -1.4518505040E+01   -1.4373467073E+01   -1.4231338447E+01   -1.4092018201E+01
   -1.3955408009E+01   -1.3821414128E+01   -1.3689947220E+01   -1.3560921952E+01
   -1.3434257298E+01   -1.3309876121E+01   -1.3187704901E+01   -1.3067673670E+01
   -1.2949715649E+01   -1.2833767688E+01   -1.2719769793E+01   -1.2607664851E+01
   -1.2497398465E+01   -1.2388919082E+01   -1.2282178114E+01   -1.2177129257E+01
   -1.2073728375E+01   -1.1971933956E+01   -1.1871706828E+01   -1.1773009695E+01
   -1.1675806947E+01   -1.1580065665E+01   -1.1485754343E+01   -1.1392842862E+01
   -1.1301303316E+01   -1.1211109173E+01   -1.1122234940E+01   -1.1034656907E+01
   -1.0948352528E+01   -1.0863299978E+01   -1.0779478888E+01   -1.0696869646E+01
   -1.0615453113E+01   -1.0535211279E+01   -1.0456126390E+01   -1.0378181113E+01
   -1.0301358638E+01   -1.0225642192E+01   -1.0151015258E+01   -1.0077461295E+01
   -1.0004963816E+01   -9.9335061428E+00   -9.8630715283E+00   -9.7936430295E+00
   -9.7252033989E+00   -9.6577353683E+00   -9.5912211572E+00   -9.5256430292E+00
   -9.4609828655E+00   -9.3972225005E+00   -9.3343436028E+00   -9.2723278204E+00
   -9.2111567299E+00   -9.1508121200E+00   -9.0912756871E+00   -9.0325296299E+00
   -8.9745561215E+00   -8.9173379347E+00   -8.8608580817E+00   -8.8051001070E+00
   -8.7500482187E+00   -8.6956870383E+00   -8.6420021650E+00   -8.5889793379E+00
   -8.5366055083E+00   -8.4848675100E+00   -8.4337535634E+00   -8.3832516462E+00
   -8.3333510383E+00   -8.2840408555E+00   -8.2353109168E+00   -8.1871508811E+00
   -8.1395509797E+00   -8.0925012776E+00   -8.0459924497E+00   -8.0000150942E+00
   -7.9545602604E+00   -7.9096190158E+00   -7.8651827440E+00   -7.8212429821E+00
   -7.7777914114E+00   -7.7348200303E+00   -7.6923207848E+00   -7.6502861249E+00
   -7.6087082335E+00   -7.5675799820E+00   -7.5268938208E+00   -7.4866429308E+00
   -7.4468201605E+00   -7.4074188482E+00   -7.3684322822E+00   -7.3298539263E+00
   -7.2916775054E+00   -7.2538965876E+00   -7.2165052938E+00   -7.1794973704E+00
   -7.1428671738E+00   -7.1066088208E+00   -7.0707167115E+00   -7.0351853906E+00
   -7.0000092816E+00   -6.9651833009E+00   -6.9307020249E+00   -6.8965605307E+00
   -6.8627537609E+00   -6.8292767653E+00   -6.7961248970E+00   -6.7632931980E+00
   -6.7307772832E+00   -6.6985725045E+00   -6.6666744110E+00   -6.6350787690E+00
   -6.6037810590E+00   -6.5727773179E+00   -6.5420633174E+00   -6.5116349921E+00
   -6.4814885048E+00   -6.4516197498E+00   -6.4220250855E+00   -6.3927007126E+00
   -6.3636428531E+00   -6.3348480497E+00   -6.3063125932E+00   -6.2780330720E+00
   -6.2500061245E+00   -6.2222281790E+00   -6.1946961359E+00   -6.1674066748E+00
   -6.1403565318E+00   -6.1135427147E+00   -6.0869620106E+00   -6.0606114374E+00
   -6.0344881005E+00   -6.0085888990E+00   -5.9829111020E+00   -5.9574518960E+00
   -5.9322083373E+00   -5.9071778741E+00   -5.8823577704E+00   -5.8577452915E+00
   -5.8333379857E+00   -5.8091332202E+00   -5.7851284470E+00   -5.7613213113E+00
   -5.7377092848E+00   -5.7142899831E+00   -5.6910611473E+00   -5.6680203540E+00
   -5.6451653608E+00   -5.6224940045E+00   -5.6000039668E+00   -5.5776931269E+00
   -5.5555594177E+00   -5.5336006254E+00   -5.5118147320E+00   -5.4901997669E+00
   -5.4687536209E+00   -5.4474743606E+00   -5.4263601126E+00   -5.4054088719E+00
   -5.3846187735E+00   -5.3639880411E+00   -5.3435147744E+00   -5.3231971609E+00
   -5.3030335215E+00   -5.2830220611E+00   -5.2631610054E+00   -5.2434487718E+00
   -5.2238836708E+00   -5.2044639540E+00   -5.1851881335E+00   -5.1660546162E+00
   -5.1470616987E+00   -5.1282079556E+00   -5.1094918779E+00   -5.0909118651E+00
   -5.0724664850E+00   -5.0541543307E+00   -5.0359739075E+00   -5.0179237646E+00
   -5.0000025948E+00   -4.9822090117E+00   -4.9645415373E+00   -4.9469989605E+00
   -4.9295799647E+00   -4.9122831570E+00   -4.8951073004E+00   -4.8780511776E+00
   -4.8611135034E+00   -4.8442929870E+00   -4.8275885124E+00   -4.8109988829E+00
   -4.7945228156E+00   -4.7781592236E+00   -4.7619069871E+00   -4.7457649309E+00
   -4.7297318929E+00   -4.7138068571E+00   -4.6979887360E+00   -4.6822763621E+00
   -4.6666687430E+00   -4.6511648649E+00   -4.6357636699E+00   -4.6204640720E+00
   -4.6052651616E+00   -4.5901659500E+00   -4.5751653907E+00   -4.5602625368E+00
   -4.5454564877E+00   -4.5307463009E+00   -4.5161309479E+00   -4.5016096031E+00
   -4.4871813762E+00   -4.4728453484E+00   -4.4586005757E+00   -4.4444462748E+00
   -4.4303815886E+00   -4.4164056181E+00   -4.4025175155E+00   -4.3887165148E+00
   -4.3750017989E+00   -4.3613724920E+00   -4.3478278288E+00   -4.3343670623E+00
   -4.3209894134E+00   -4.3076940332E+00   -4.2944802248E+00   -4.2813472627E+00
   -4.2682944045E+00   -4.2553208305E+00   -4.2424258994E+00   -4.2296089104E+00
   -4.2168691556E+00   -4.2042058470E+00   -4.1916183871E+00   -4.1791061023E+00
   -4.1666683177E+00   -4.1543042792E+00   -4.1420134217E+00   -4.1297951019E+00
   -4.1176486762E+00   -4.1055734259E+00   -4.0935688085E+00   -4.0816342131E+00
   -4.0697690263E+00   -4.0579725665E+00   -4.0462443039E+00   -4.0345836627E+00
   -4.0229900580E+00   -4.0114628473E+00   -4.0000015044E+00   -3.9886054905E+00
   -3.9772742481E+00   -3.9660071758E+00   -3.9548037422E+00   -3.9436634475E+00
   -3.9325857600E+00   -3.9215701219E+00   -3.9106159885E+00   -3.8997229002E+00
   -3.8888903500E+00   -3.8781178259E+00   -3.8674047629E+00   -3.8567507420E+00
   -3.8461552800E+00   -3.8356178936E+00   -3.8251380482E+00   -3.8147153096E+00
   -3.8043492353E+00   -3.7940393646E+00   -3.7837852122E+00   -3.7735863052E+00
   -3.7634422482E+00   -3.7533526019E+00   -3.7433169269E+00   -3.7333347239E+00
   -3.7234056265E+00   -3.7135292215E+00   -3.7037050899E+00   -3.6939327846E+00
   -3.6842118859E+00   -3.6745420316E+00   -3.6649228225E+00   -3.6553538592E+00
   -3.6458346868E+00   -3.6363649705E+00   -3.6269443367E+00   -3.6175724048E+00
   -3.6082487756E+00   -3.5989730479E+00   -3.5897449024E+00   -3.5805639762E+00
   -3.5714299061E+00   -3.5623422906E+00   -3.5533007936E+00   -3.5443050913E+00
   -3.5353548375E+00   -3.5264496862E+00   -3.5175892374E+00   -3.5087732093E+00
   -3.5000012763E+00   -3.4912731084E+00   -3.4825883660E+00   -3.4739466836E+00
   -3.4653477940E+00   -3.4567913827E+00   -3.4482771351E+00   -3.4398047171E+00
   -3.4313738014E+00   -3.4229841251E+00   -3.4146353883E+00   -3.4063272911E+00
   -3.3980595077E+00   -3.3898317405E+00   -3.3816437333E+00   -3.3734952001E+00
   -3.3653858550E+00   -3.3573153836E+00   -3.3492835093E+00   -3.3412899853E+00
   -3.3333345389E+00   -3.3254168977E+00   -3.3175367609E+00   -3.3096938654E+00
   -3.3018879761E+00   -3.2941188333E+00   -3.2863861770E+00   -3.2786897229E+00
   -3.2710292135E+00   -3.2634044283E+00   -3.2558151197E+00   -3.2482610397E+00
   -3.2407419227E+00   -3.2332575101E+00   -3.2258075980E+00   -3.2183919503E+00
   -3.2110103306E+00   -3.2036624943E+00   -3.1963481750E+00   -3.1890671876E+00
   -3.1818193069E+00   -3.1746043076E+00   -3.1674219646E+00   -3.1602720086E+00
   -3.1531542643E+00   -3.1460685205E+00   -3.1390145624E+00   -3.1319921753E+00
   -3.1250011150E+00   -3.1180411844E+00   -3.1111121965E+00   -3.1042139466E+00
   -3.0973462299E+00   -3.0905088297E+00   -3.0837015217E+00   -3.0769241444E+00
   -3.0701765026E+00   -3.0634584011E+00   -3.0567696447E+00   -3.0501100017E+00
   -3.0434793126E+00   -3.0368773993E+00   -3.0303040757E+00   -3.0237591557E+00
   -3.0172424389E+00   -3.0107537267E+00   -3.0042928710E+00   -2.9978596944E+00
   -2.9914540195E+00   -2.9850756688E+00   -2.9787244326E+00   -2.9724001615E+00
   -2.9661026966E+00   -2.9598318688E+00   -2.9535875089E+00   -2.9473694422E+00
   -2.9411774702E+00   -2.9350114673E+00   -2.9288712721E+00   -2.9227567235E+00
   -2.9166676601E+00   -2.9106039029E+00   -2.9045652883E+00   -2.8985516856E+00
   -2.8925629410E+00   -2.8865989008E+00   -2.8806594112E+00   -2.8747442919E+00
   -2.8688534069E+00   -2.8629866229E+00   -2.8571437932E+00   -2.8513247713E+00
   -2.8455294106E+00   -2.8397575326E+00   -2.8340090212E+00   -2.8282837435E+00
   -2.8225815596E+00   -2.8169023299E+00   -2.8112459145E+00   -2.8056121390E+00
   -2.8000009012E+00   -2.7944120706E+00   -2.7888455142E+00   -2.7833010985E+00
   -2.7777786903E+00   -2.7722781219E+00   -2.7667992981E+00   -2.7613420939E+00
   -2.7559063824E+00   -2.7504920363E+00   -2.7450989287E+00   -2.7397269005E+00
   -2.7343758579E+00   -2.7290456838E+00   -2.7237362568E+00   -2.7184474560E+00
   -2.7131791601E+00   -2.7079312208E+00   -2.7027035404E+00   -2.6974960114E+00
   -2.6923085183E+00   -2.6871409457E+00   -2.6819931780E+00   -2.6768650796E+00
   -2.6717565437E+00   -2.6666674746E+00   -2.6615977622E+00   -2.6565472964E+00
   -2.6515159671E+00   -2.6465036536E+00   -2.6415102347E+00   -2.6365356285E+00
   -2.6315797301E+00   -2.6266424345E+00   -2.6217236366E+00   -2.6168232316E+00
   -2.6119410830E+00   -2.6070771207E+00   -2.6022312458E+00   -2.5974033581E+00
   -2.5925933576E+00   -2.5878011443E+00   -2.5830266003E+00   -2.5782696310E+00
   -2.5735301556E+00   -2.5688080787E+00   -2.5641033049E+00   -2.5594157386E+00
   -2.5547452830E+00   -2.5500918149E+00   -2.5454552727E+00   -2.5408355654E+00
   -2.5362326020E+00   -2.5316462915E+00   -2.5270765430E+00   -2.5225232509E+00
   -2.5179863246E+00   -2.5134656934E+00   -2.5089612707E+00   -2.5044729696E+00
   -2.5000007034E+00   -2.4955443855E+00   -2.4911039045E+00   -2.4866791961E+00
   -2.4822701828E+00   -2.4778767821E+00   -2.4734989112E+00   -2.4691364874E+00
   -2.4647894255E+00   -2.4604576190E+00   -2.4561410157E+00   -2.4518395366E+00
   -2.4475531029E+00   -2.4432816358E+00   -2.4390250563E+00   -2.4347832779E+00
   -2.4305562097E+00   -2.4263437972E+00   -2.4221459653E+00   -2.4179626387E+00
   -2.4137937424E+00   -2.4096392010E+00   -2.4054989291E+00   -2.4013728456E+00
   -2.3972608963E+00   -2.3931630096E+00   -2.3890791137E+00   -2.3850091371E+00
   -2.3809530080E+00   -2.3769106440E+00   -2.3728819690E+00   -2.3688669310E+00
   -2.3648654618E+00   -2.3608774930E+00   -2.3569029563E+00   -2.3529417834E+00
   -2.3489938971E+00   -2.3450592211E+00   -2.3411377080E+00   -2.3372292926E+00
   -2.3333339099E+00   -2.3294514947E+00
  </PP_LOCAL>
 <PP_NONLOCAL>
   <PP_BETA.1
       type="real"
       size=" 602"
       columns="4"
       index="1"
       angular_momentum="0"
       cutoff_radius_index=" 170"
       cutoff_radius="    1.6900000000E+00" >
    0.0000000000E+00    8.5458345002E-03    1.7090493086E-02    2.5631442645E-02
    3.4163457035E-02    4.2677323702E-02    5.1158613381E-02    5.9586532740E-02
    6.7932878856E-02    7.6161113227E-02    8.4225571582E-02    9.2070824182E-02
    9.9631199445E-02    1.0683048183E-01    1.1358179278E-01    1.1978766124E-01
    1.2534028808E-01    1.3012200617E-01    1.3400593549E-01    1.3685683045E-01
    1.3853211288E-01    1.3888308461E-01    1.3775630652E-01    1.3499513416E-01
    1.3044139164E-01    1.2393717217E-01    1.1532673814E-01    1.0445851214E-01
    9.1187120212E-02    7.5375481084E-02    5.6896907217E-02    3.5637194777E-02
    1.1496670264E-02   -1.5607820333E-02   -4.5740985991E-02   -7.8947365256E-02
   -1.1524959455E-01   -1.5464699599E-01   -1.9711426411E-01   -2.4260032773E-01
   -2.9102753637E-01   -3.4229101780E-01   -3.9625831122E-01   -4.5276927103E-01
   -5.1163625063E-01   -5.7264457286E-01   -6.3555329111E-01   -7.0009624178E-01
   -7.6598338203E-01   -8.3290239783E-01   -9.0052062552E-01   -9.6848719649E-01
   -1.0364353688E+00   -1.1039853404E+00   -1.1707468342E+00   -1.2363223181E+00
   -1.3003100960E+00   -1.3623075377E+00   -1.4219146448E+00   -1.4787373612E+00
   -1.5323909832E+00   -1.5825041903E+00   -1.6287212625E+00   -1.6707071643E+00
   -1.7081495393E+00   -1.7407614974E+00   -1.7682863404E+00   -1.7904986653E+00
   -1.8072070606E+00   -1.8182564964E+00   -1.8235309661E+00   -1.8229539360E+00
   -1.8164899495E+00   -1.8041454399E+00   -1.7859690178E+00   -1.7620524518E+00