<UPF version="2.0.1">
  <PP_INFO>

 K_ONCV_PBE-1.2.upf

 This pseudopotential file has been produced using the code
 ONCVPSP  (Optimized Norm-Conservinng Vanderbilt PSeudopotential)
 scalar-relativistic version 2.1.1, 03/26/2014 by D. R. Hamann
 The code is available through a link at URL www.mat-simresearch.com.
 Documentation with the package provides a full discription of the
 input data below.


 While it is not required under the terms of the GNU GPL, it is
 suggested that you cite D. R. Hamann, Phys. Rev. B 88, 085117 (2013)
 in any publication using these pseudopotentials.


 Copyright 2015 The Regents of the University of California
 
 This work is licensed under the Creative Commons Attribution-ShareAlike 
 4.0 International License. To view a copy of this license, visit 
 http://creativecommons.org/licenses/by-sa/4.0/ or send a letter to 
 Creative Commons, PO Box 1866, Mountain View, CA 94042, USA.
 
 This pseudopotential is part of the Schlipf-Gygi norm-conserving 
 pseudopotential library. Its construction parameters were tuned to 
 reproduce materials of a training set with very high accuracy and 
 should be suitable as a general purpose pseudopotential to treat a 
 variety of different compounds. For details of the construction and 
 testing of the pseudopotential please refer to:
 
   M. Schlipf and F. Gygi, Computer Physics Communications (2015)
   DOI: 10.1016/j.cpc.2015.05.011
   http://dx.doi.org/10.1016/j.cpc.2015.05.011
   http://www.quantum-simulation.org
 
 We kindly ask that you include this reference in all publications 
 associated to this pseudopotential.


    <PP_INPUTFILE>
# ATOM AND REFERENCE CONFIGURATION
# atsym  z    nc    nv    iexc   psfile
  K 19.00     3     3     4      upf
#
#   n    l    f        energy (Ha)
    1    0    2.00
    2    0    2.00
    2    1    6.00
    3    0    2.00
    3    1    6.00
    4    0    1.00
#
# PSEUDOPOTENTIAL AND OPTIMIZATION
# lmax
    2
#
#   l,   rc,     ep,   ncon, nbas, qcut
    0   2.17031  -1.29884    5    8   5.88121
    1   2.33134  -0.69139    5    8   5.98033
    2   2.35932   0.21071    5    8   6.69467
#
# LOCAL POTENTIAL
# lloc, lpopt,  rc(5),   dvloc0
    4    5   2.06919      0.00000
#
# VANDERBILT-KLEINMAN-BYLANDER PROJECTORs
# l, nproj, debl
    0    2   1.21361
    1    2   1.74240
    2    2   1.72705
#
# MODEL CORE CHARGE
# icmod, fcfact
    0   0.00000
#
# LOG DERIVATIVE ANALYSIS
# epsh1, epsh2, depsh
   -5.00    3.00    0.02
#
# OUTPUT GRID
# rlmax, drl
    6.00    0.01
#
# TEST CONFIGURATIONS
# ncnf
    0
# nvcnf
#   n    l    f
    </PP_INPUTFILE>
  </PP_INFO>
  <!--                               -->
  <!-- END OF HUMAN READABLE SECTION -->
  <!--                               -->
    <PP_HEADER
       generated="Generated using ONCVPSP code by D. R. Hamann"
       author="Martin Schlipf and Francois Gygi"
       date="150105"
       comment=""
       element="K "
       pseudo_type="NC"
       relativistic="scalar"
       is_ultrasoft="F"
       is_paw="F"
       is_coulomb="F"
       has_so="F"
       has_wfc="F"
       has_gipaw="F"
       core_correction="F"
       functional="PBE"
       z_valence="    9.00"
       total_psenergy="  -2.83761768407E+01"
       rho_cutoff="   6.01000000000E+00"
       l_max="2"
       l_local="-1"
       mesh_size="   602"
       number_of_wfc="0"
       number_of_proj="6"/>
 <PP_MESH>
   <PP_R type="real"  size=" 602" columns="8">
    0.0000    0.0100    0.0200    0.0300    0.0400    0.0500    0.0600    0.0700
    0.0800    0.0900    0.1000    0.1100    0.1200    0.1300    0.1400    0.1500
    0.1600    0.1700    0.1800    0.1900    0.2000    0.2100    0.2200    0.2300
    0.2400    0.2500    0.2600    0.2700    0.2800    0.2900    0.3000    0.3100
    0.3200    0.3300    0.3400    0.3500    0.3600    0.3700    0.3800    0.3900
    0.4000    0.4100    0.4200    0.4300    0.4400    0.4500    0.4600    0.4700
    0.4800    0.4900    0.5000    0.5100    0.5200    0.5300    0.5400    0.5500
    0.5600    0.5700    0.5800    0.5900    0.6000    0.6100    0.6200    0.6300
    0.6400    0.6500    0.6600    0.6700    0.6800    0.6900    0.7000    0.7100
    0.7200    0.7300    0.7400    0.7500    0.7600    0.7700    0.7800    0.7900
    0.8000    0.8100    0.8200    0.8300    0.8400    0.8500    0.8600    0.8700
    0.8800    0.8900    0.9000    0.9100    0.9200    0.9300    0.9400    0.9500
    0.9600    0.9700    0.9800    0.9900    1.0000    1.0100    1.0200    1.0300
    1.0400    1.0500    1.0600    1.0700    1.0800    1.0900    1.1000    1.1100
    1.1200    1.1300    1.1400    1.1500    1.1600    1.1700    1.1800    1.1900
    1.2000    1.2100    1.2200    1.2300    1.2400    1.2500    1.2600    1.2700
    1.2800    1.2900    1.3000    1.3100    1.3200    1.3300    1.3400    1.3500
    1.3600    1.3700    1.3800    1.3900    1.4000    1.4100    1.4200    1.4300
    1.4400    1.4500    1.4600    1.4700    1.4800    1.4900    1.5000    1.5100
    1.5200    1.5300    1.5400    1.5500    1.5600    1.5700    1.5800    1.5900
    1.6000    1.6100    1.6200    1.6300    1.6400    1.6500    1.6600    1.6700
    1.6800    1.6900    1.7000    1.7100    1.7200    1.7300    1.7400    1.7500
    1.7600    1.7700    1.7800    1.7900    1.8000    1.8100    1.8200    1.8300
    1.8400    1.8500    1.8600    1.8700    1.8800    1.8900    1.9000    1.9100
    1.9200    1.9300    1.9400    1.9500    1.9600    1.9700    1.9800    1.9900
    2.0000    2.0100    2.0200    2.0300    2.0400    2.0500    2.0600    2.0700
    2.0800    2.0900    2.1000    2.1100    2.1200    2.1300    2.1400    2.1500
    2.1600    2.1700    2.1800    2.1900    2.2000    2.2100    2.2200    2.2300
    2.2400    2.2500    2.2600    2.2700    2.2800    2.2900    2.3000    2.3100
    2.3200    2.3300    2.3400    2.3500    2.3600    2.3700    2.3800    2.3900
    2.4000    2.4100    2.4200    2.4300    2.4400    2.4500    2.4600    2.4700
    2.4800    2.4900    2.5000    2.5100    2.5200    2.5300    2.5400    2.5500
    2.5600    2.5700    2.5800    2.5900    2.6000    2.6100    2.6200    2.6300
    2.6400    2.6500    2.6600    2.6700    2.6800    2.6900    2.7000    2.7100
    2.7200    2.7300    2.7400    2.7500    2.7600    2.7700    2.7800    2.7900
    2.8000    2.8100    2.8200    2.8300    2.8400    2.8500    2.8600    2.8700
    2.8800    2.8900    2.9000    2.9100    2.9200    2.9300    2.9400    2.9500
    2.9600    2.9700    2.9800    2.9900    3.0000    3.0100    3.0200    3.0300
    3.0400    3.0500    3.0600    3.0700    3.0800    3.0900    3.1000    3.1100
    3.1200    3.1300    3.1400    3.1500    3.1600    3.1700    3.1800    3.1900
    3.2000    3.2100    3.2200    3.2300    3.2400    3.2500    3.2600    3.2700
    3.2800    3.2900    3.3000    3.3100    3.3200    3.3300    3.3400    3.3500
    3.3600    3.3700    3.3800    3.3900    3.4000    3.4100    3.4200    3.4300
    3.4400    3.4500    3.4600    3.4700    3.4800    3.4900    3.5000    3.5100
    3.5200    3.5300    3.5400    3.5500    3.5600    3.5700    3.5800    3.5900
    3.6000    3.6100    3.6200    3.6300    3.6400    3.6500    3.6600    3.6700
    3.6800    3.6900    3.7000    3.7100    3.7200    3.7300    3.7400    3.7500
    3.7600    3.7700    3.7800    3.7900    3.8000    3.8100    3.8200    3.8300
    3.8400    3.8500    3.8600    3.8700    3.8800    3.8900    3.9000    3.9100
    3.9200    3.9300    3.9400    3.9500    3.9600    3.9700    3.9800    3.9900
    4.0000    4.0100    4.0200    4.0300    4.0400    4.0500    4.0600    4.0700
    4.0800    4.0900    4.1000    4.1100    4.1200    4.1300    4.1400    4.1500
    4.1600    4.1700    4.1800    4.1900    4.2000    4.2100    4.2200    4.2300
    4.2400    4.2500    4.2600    4.2700    4.2800    4.2900    4.3000    4.3100
    4.3200    4.3300    4.3400    4.3500    4.3600    4.3700    4.3800    4.3900
    4.4000    4.4100    4.4200    4.4300    4.4400    4.4500    4.4600    4.4700
    4.4800    4.4900    4.5000    4.5100    4.5200    4.5300    4.5400    4.5500
    4.5600    4.5700    4.5800    4.5900    4.6000    4.6100    4.6200    4.6300
    4.6400    4.6500    4.6600    4.6700    4.6800    4.6900    4.7000    4.7100
    4.7200    4.7300    4.7400    4.7500    4.7600    4.7700    4.7800    4.7900
    4.8000    4.8100    4.8200    4.8300    4.8400    4.8500    4.8600    4.8700
    4.8800    4.8900    4.9000    4.9100    4.9200    4.9300    4.9400    4.9500
    4.9600    4.9700    4.9800    4.9900    5.0000    5.0100    5.0200    5.0300
    5.0400    5.0500    5.0600    5.0700    5.0800    5.0900    5.1000    5.1100
    5.1200    5.1300    5.1400    5.1500    5.1600    5.1700    5.1800    5.1900
    5.2000    5.2100    5.2200    5.2300    5.2400    5.2500    5.2600    5.2700
    5.2800    5.2900    5.3000    5.3100    5.3200    5.3300    5.3400    5.3500
    5.3600    5.3700    5.3800    5.3900    5.4000    5.4100    5.4200    5.4300
    5.4400    5.4500    5.4600    5.4700    5.4800    5.4900    5.5000    5.5100
    5.5200    5.5300    5.5400    5.5500    5.5600    5.5700    5.5800    5.5900
    5.6000    5.6100    5.6200    5.6300    5.6400    5.6500    5.6600    5.6700
    5.6800    5.6900    5.7000    5.7100    5.7200    5.7300    5.7400    5.7500
    5.7600    5.7700    5.7800    5.7900    5.8000    5.8100    5.8200    5.8300
    5.8400    5.8500    5.8600    5.8700    5.8800    5.8900    5.9000    5.9100
    5.9200    5.9300    5.9400    5.9500    5.9600    5.9700    5.9800    5.9900
    6.0000    6.0100
   </PP_R>
   <PP_RAB type="real"  size=" 602" columns="8">
    0.0100    0.0100    0.0100    0.0100    0.0100    0.0100    0.0100    0.0100
    0.0100    0.0100    0.0100    0.0100    0.0100    0.0100    0.0100    0.0100
    0.0100    0.0100    0.0100    0.0100    0.0100    0.0100    0.0100    0.0100
    0.0100    0.0100    0.0100    0.0100    0.0100    0.0100    0.0100    0.0100
    0.0100    0.0100    0.0100    0.0100    0.0100    0.0100    0.0100    0.0100
    0.0100    0.0100    0.0100    0.0100    0.0100    0.0100    0.0100    0.0100
    0.0100    0.0100    0.0100    0.0100    0.0100    0.0100    0.0100    0.0100
    0.0100    0.0100    0.0100    0.0100    0.0100    0.0100    0.0100    0.0100
    0.0100    0.0100    0.0100    0.0100    0.0100    0.0100    0.0100    0.0100
    0.0100    0.0100    0.0100    0.0100    0.0100    0.0100    0.0100    0.0100
    0.0100    0.0100    0.0100    0.0100    0.0100    0.0100    0.0100    0.0100
    0.0100    0.0100    0.0100    0.0100    0.0100    0.0100    0.0100    0.0100
    0.0100    0.0100    0.0100    0.0100    0.0100    0.0100    0.0100    0.0100
    0.0100    0.0100    0.0100    0.0100    0.0100    0.0100    0.0100    0.0100
    0.0100    0.0100    0.0100    0.0100    0.0100    0.0100    0.0100    0.0100
    0.0100    0.0100    0.0100    0.0100    0.0100    0.0100    0.0100    0.0100
    0.0100    0.0100    0.0100    0.0100    0.0100    0.0100    0.0100    0.0100
    0.0100    0.0100    0.0100    0.0100    0.0100    0.0100    0.0100    0.0100
    0.0100    0.0100    0.0100    0.0100    0.0100    0.0100    0.0100    0.0100
    0.0100    0.0100    0.0100    0.0100    0.0100    0.0100    0.0100    0.0100
    0.0100    0.0100    0.0100    0.0100    0.0100    0.0100    0.0100    0.0100
    0.0100    0.0100    0.0100    0.0100    0.0100    0.0100    0.0100    0.0100
    0.0100    0.0100    0.0100    0.0100    0.0100    0.0100    0.0100    0.0100
    0.0100    0.0100    0.0100    0.0100    0.0100    0.0100    0.0100    0.0100
    0.0100    0.0100    0.0100    0.0100    0.0100    0.0100    0.0100    0.0100
    0.0100    0.0100    0.0100    0.0100    0.0100    0.0100    0.0100    0.0100
    0.0100    0.0100    0.0100    0.0100    0.0100    0.0100    0.0100    0.0100
    0.0100    0.0100    0.0100    0.0100    0.0100    0.0100    0.0100    0.0100
    0.0100    0.0100    0.0100    0.0100    0.0100    0.0100    0.0100    0.0100
    0.0100    0.0100    0.0100    0.0100    0.0100    0.0100    0.0100    0.0100
    0.0100    0.0100    0.0100    0.0100    0.0100    0.0100    0.0100    0.0100
    0.0100    0.0100    0.0100    0.0100    0.0100    0.0100    0.0100    0.0100
    0.0100    0.0100    0.0100    0.0100    0.0100    0.0100    0.0100    0.0100
    0.0100    0.0100    0.0100    0.0100    0.0100    0.0100    0.0100    0.0100
    0.0100    0.0100    0.0100    0.0100    0.0100    0.0100    0.0100    0.0100
    0.0100    0.0100    0.0100    0.0100    0.0100    0.0100    0.0100    0.0100
    0.0100    0.0100    0.0100    0.0100    0.0100    0.0100    0.0100    0.0100
    0.0100    0.0100    0.0100    0.0100    0.0100    0.0100    0.0100    0.0100
    0.0100    0.0100    0.0100    0.0100    0.0100    0.0100    0.0100    0.0100
    0.0100    0.0100    0.0100    0.0100    0.0100    0.0100    0.0100    0.0100
    0.0100    0.0100    0.0100    0.0100    0.0100    0.0100    0.0100    0.0100
    0.0100    0.0100    0.0100    0.0100    0.0100    0.0100    0.0100    0.0100
    0.0100    0.0100    0.0100    0.0100    0.0100    0.0100    0.0100    0.0100
    0.0100    0.0100    0.0100    0.0100    0.0100    0.0100    0.0100    0.0100
    0.0100    0.0100    0.0100    0.0100    0.0100    0.0100    0.0100    0.0100
    0.0100    0.0100    0.0100    0.0100    0.0100    0.0100    0.0100    0.0100
    0.0100    0.0100    0.0100    0.0100    0.0100    0.0100    0.0100    0.0100
    0.0100    0.0100    0.0100    0.0100    0.0100    0.0100    0.0100    0.0100
    0.0100    0.0100    0.0100    0.0100    0.0100    0.0100    0.0100    0.0100
    0.0100    0.0100    0.0100    0.0100    0.0100    0.0100    0.0100    0.0100
    0.0100    0.0100    0.0100    0.0100    0.0100    0.0100    0.0100    0.0100
    0.0100    0.0100    0.0100    0.0100    0.0100    0.0100    0.0100    0.0100
    0.0100    0.0100    0.0100    0.0100    0.0100    0.0100    0.0100    0.0100
    0.0100    0.0100    0.0100    0.0100    0.0100    0.0100    0.0100    0.0100
    0.0100    0.0100    0.0100    0.0100    0.0100    0.0100    0.0100    0.0100
    0.0100    0.0100    0.0100    0.0100    0.0100    0.0100    0.0100    0.0100
    0.0100    0.0100    0.0100    0.0100    0.0100    0.0100    0.0100    0.0100
    0.0100    0.0100    0.0100    0.0100    0.0100    0.0100    0.0100    0.0100
    0.0100    0.0100    0.0100    0.0100    0.0100    0.0100    0.0100    0.0100
    0.0100    0.0100    0.0100    0.0100    0.0100    0.0100    0.0100    0.0100
    0.0100    0.0100    0.0100    0.0100    0.0100    0.0100    0.0100    0.0100
    0.0100    0.0100    0.0100    0.0100    0.0100    0.0100    0.0100    0.0100
    0.0100    0.0100    0.0100    0.0100    0.0100    0.0100    0.0100    0.0100
    0.0100    0.0100    0.0100    0.0100    0.0100    0.0100    0.0100    0.0100
    0.0100    0.0100    0.0100    0.0100    0.0100    0.0100    0.0100    0.0100
    0.0100    0.0100    0.0100    0.0100    0.0100    0.0100    0.0100    0.0100
    0.0100    0.0100    0.0100    0.0100    0.0100    0.0100    0.0100    0.0100
    0.0100    0.0100    0.0100    0.0100    0.0100    0.0100    0.0100    0.0100
    0.0100    0.0100    0.0100    0.0100    0.0100    0.0100    0.0100    0.0100
    0.0100    0.0100    0.0100    0.0100    0.0100    0.0100    0.0100    0.0100
    0.0100    0.0100    0.0100    0.0100    0.0100    0.0100    0.0100    0.0100
    0.0100    0.0100    0.0100    0.0100    0.0100    0.0100    0.0100    0.0100
    0.0100    0.0100    0.0100    0.0100    0.0100    0.0100    0.0100    0.0100
    0.0100    0.0100    0.0100    0.0100    0.0100    0.0100    0.0100    0.0100
    0.0100    0.0100    0.0100    0.0100    0.0100    0.0100    0.0100    0.0100
    0.0100    0.0100
   </PP_RAB>
 </PP_MESH>
  <PP_LOCAL type="real"  size=" 602" columns="4">
   -2.0216844656e+01   -2.0219451935e+01   -2.0227102669e+01   -2.0239283559e+01
   -2.0255139104e+01   -2.0273471602e+01   -2.0292741150e+01   -2.0311065647e+01
   -2.0326220790e+01   -2.0335640074e+01   -2.0336414797e+01   -2.0326242106e+01
   -2.0306411842e+01   -2.0278955311e+01   -2.0245615259e+01   -2.0207815510e+01
   -2.0166679205e+01   -2.0123069493e+01   -2.0077637239e+01   -2.0030866936e+01
   -1.9983116831e+01   -1.9934651871e+01   -1.9885669517e+01   -1.9836319281e+01
   -1.9786716998e+01   -1.9736954954e+01   -1.9687108852e+01   -1.9637242409e+01
   -1.9587410283e+01   -1.9537659848e+01   -1.9488032180e+01   -1.9438562562e+01
   -1.9389280697e+01   -1.9340210773e+01   -1.9291371479e+01   -1.9242775981e+01
   -1.9194431982e+01   -1.9146341747e+01   -1.9098502245e+01   -1.9050905292e+01
   -1.9003537733e+01   -1.8956381669e+01   -1.8909414709e+01   -1.8862610238e+01
   -1.8815937707e+01   -1.8769362934e+01   -1.8722848438e+01   -1.8676353765e+01
   -1.8629835841e+01   -1.8583249351e+01   -1.8536547132e+01   -1.8489680569e+01
   -1.8442600011e+01   -1.8395255225e+01   -1.8347595824e+01   -1.8299571737e+01
   -1.8251133638e+01   -1.8202233444e+01   -1.8152824682e+01   -1.8102863010e+01
   -1.8052306511e+01   -1.8001116130e+01   -1.7949256010e+01   -1.7896693646e+01
   -1.7843400335e+01   -1.7789351197e+01   -1.7734525264e+01   -1.7678905728e+01
   -1.7622479835e+01   -1.7565238837e+01   -1.7507177886e+01   -1.7448296009e+01
   -1.7388595858e+01   -1.7328083482e+01   -1.7266768102e+01   -1.7204661859e+01
   -1.7141779525e+01   -1.7078138234e+01   -1.7013757213e+01   -1.6948657451e+01
   -1.6882861444e+01   -1.6816392930e+01   -1.6749276636e+01   -1.6681538045e+01
   -1.6613203183e+01   -1.6544298423e+01   -1.6474850312e+01   -1.6404885419e+01
   -1.6334430202e+01   -1.6263510899e+01   -1.6192153427e+01   -1.6120383313e+01
   -1.6048225625e+01   -1.5975704939e+01   -1.5902845291e+01   -1.5829670145e+01
   -1.5756202398e+01   -1.5682464366e+01   -1.5608477785e+01   -1.5534263821e+01
   -1.5459843074e+01   -1.5385235622e+01   -1.5310460968e+01   -1.5235538108e+01
   -1.5160485548e+01   -1.5085321320e+01   -1.5010063011e+01   -1.4934727769e+01
   -1.4859332281e+01   -1.4783892856e+01   -1.4708425422e+01   -1.4632945571e+01
   -1.4557468467e+01   -1.4482008951e+01   -1.4406581543e+01   -1.4331200485e+01
   -1.4255879614e+01   -1.4180632497e+01   -1.4105472425e+01   -1.4030412403e+01
   -1.3955465076e+01   -1.3880642847e+01   -1.3805957902e+01   -1.3731422025e+01
   -1.3657046770e+01   -1.3582843490e+01   -1.3508823156e+01   -1.3434996485e+01
   -1.3361374017e+01   -1.3287965898e+01   -1.3214782029e+01   -1.3141832157e+01
   -1.3069125585e+01   -1.2996671432e+01   -1.2924478634e+01   -1.2852555672e+01
   -1.2780910927e+01   -1.2709552466e+01   -1.2638488019e+01   -1.2567725254e+01
   -1.2497271353e+01   -1.2427133401e+01   -1.2357318230e+01   -1.2287832304e+01
   -1.2218682090e+01   -1.2149873543e+01   -1.2081412612e+01   -1.2013304925e+01
   -1.1945555884e+01   -1.1878170810e+01   -1.1811154609e+01   -1.1744512269e+01
   -1.1678248307e+01   -1.1612367301e+01   -1.1546873495e+01   -1.1481771061e+01
   -1.1417063989e+01   -1.1352756087e+01   -1.1288851106e+01   -1.1225352530e+01
   -1.1162263883e+01   -1.1099588362e+01   -1.1037329276e+01   -1.0975489568e+01
   -1.0914072342e+01   -1.0853080320e+01   -1.0792516390e+01   -1.0732383084e+01
   -1.0672683088e+01   -1.0613418738e+01   -1.0554592535e+01   -1.0496206613e+01
   -1.0438263292e+01   -1.0380764493e+01   -1.0323712357e+01   -1.0267108581e+01
   -1.0210955099e+01   -1.0155253392e+01   -1.0100005149e+01   -1.0045211631e+01
   -9.9908742431e+00   -9.9369940213e+00   -9.8835720303e+00   -9.8306090883e+00
   -9.7781058476e+00   -9.7260629226e+00   -9.6744804681e+00   -9.6233589155e+00
   -9.5726978653e+00   -9.5224974814e+00   -9.4727569112e+00   -9.4234757714e+00
   -9.3746529715e+00   -9.3262873901e+00   -9.2783777717e+00   -9.2309221209e+00
   -9.1839190777e+00   -9.1373658389e+00   -9.0912604488e+00   -9.0455998316e+00
   -9.0003810186e+00   -8.9556009005e+00   -8.9112553414e+00   -8.8673411814e+00
   -8.8238534356e+00   -8.7807879643e+00   -8.7381398728e+00   -8.6959036759e+00
   -8.6540743801e+00   -8.6126462431e+00   -8.5716137039e+00   -8.5309713479e+00
   -8.4907138157e+00   -8.4508356119e+00   -8.4113316351e+00   -8.3721965516e+00
   -8.3334252374e+00   -8.2950127220e+00   -8.2569537624e+00   -8.2192436745e+00
   -8.1818775250e+00   -8.1448504747e+00   -8.1081580166e+00   -8.0717953362e+00
   -8.0357580355e+00   -8.0000417250e+00   -7.9646417761e+00   -7.9295541871e+00
   -7.8947746386e+00   -7.8602989234e+00   -7.8261232225e+00   -7.7922433733e+00
   -7.7586555981e+00   -7.7253562431e+00   -7.6923413547e+00   -7.6596075001e+00
   -7.6271511318e+00   -7.5949685332e+00   -7.5630564706e+00   -7.5314114842e+00
   -7.5000300993e+00   -7.4689092298e+00   -7.4380455569e+00   -7.4074358439e+00
   -7.3770771202e+00   -7.3469661978e+00   -7.3171000395e+00   -7.2874758000e+00
   -7.2580904257e+00   -7.2289410536e+00   -7.2000249614e+00   -7.1713392299e+00
   -7.1428811447e+00   -7.1146481070e+00   -7.0866373319e+00   -7.0588462297e+00
   -7.0312723252e+00   -7.0039129680e+00   -6.9767656705e+00   -6.9498280820e+00
   -6.9230976864e+00   -6.8965720772e+00   -6.8702490283e+00   -6.8441261583e+00
   -6.8182011228e+00   -6.7924718194e+00   -6.7669360023e+00   -6.7415913716e+00
   -6.7164359473e+00   -6.6914676176e+00   -6.6666841185e+00   -6.6420835836e+00
   -6.6176640012e+00   -6.5934232390e+00   -6.5693594326e+00   -6.5454707017e+00
   -6.5217550486e+00   -6.4982105947e+00   -6.4748355890e+00   -6.4516281719e+00
   -6.4285864372e+00   -6.4057087597e+00   -6.3829933943e+00   -6.3604384744e+00
   -6.3380424193e+00   -6.3158035896e+00   -6.2937202543e+00   -6.2717907715e+00
   -6.2500136344e+00   -6.2283872524e+00   -6.2069099142e+00   -6.1855802377e+00
   -6.1643967105e+00   -6.1433577420e+00   -6.1224618749e+00   -6.1017077288e+00
   -6.0810938544e+00   -6.0606186973e+00   -6.0402810049e+00   -6.0200794022e+00
   -6.0000124477e+00   -5.9800787976e+00   -5.9602772079e+00   -5.9406063675e+00
   -5.9210648524e+00   -5.9016515069e+00   -5.8823650935e+00   -5.8632043276e+00
   -5.8441679180e+00   -5.8252547637e+00   -5.8064636731e+00   -5.7877933816e+00
   -5.7692427506e+00   -5.7508106952e+00   -5.7324960790e+00   -5.7142976644e+00
   -5.6962144445e+00   -5.6782453527e+00   -5.6603892941e+00   -5.6426450978e+00
   -5.6250118336e+00   -5.6074884685e+00   -5.5900739368e+00   -5.5727671689e+00
   -5.5555672620e+00   -5.5384732311e+00   -5.5214840437e+00   -5.5045987155e+00
   -5.4878163732e+00   -5.4711360780e+00   -5.4545568339e+00   -5.4380777265e+00
   -5.4216979149e+00   -5.4054165041e+00   -5.3892325385e+00   -5.3731451581e+00
   -5.3571535579e+00   -5.3412568847e+00   -5.3254542263e+00   -5.3097447630e+00
   -5.2941277286e+00   -5.2786023102e+00   -5.2631676417e+00   -5.2478229301e+00
   -5.2325674517e+00   -5.2174004312e+00   -5.2023210519e+00   -5.1873285353e+00
   -5.1724222020e+00   -5.1576013132e+00   -5.1428651042e+00   -5.1282127990e+00
   -5.1136437653e+00   -5.0991572987e+00   -5.0847526888e+00   -5.0704291526e+00
   -5.0561861056e+00   -5.0420228764e+00   -5.0279387937e+00   -5.0139331111e+00
   -5.0000052402e+00   -4.9861545582e+00   -4.9723804251e+00   -4.9586821534e+00
   -4.9450591216e+00   -4.9315107633e+00   -4.9180364681e+00   -4.9046356106e+00
   -4.8913075278e+00   -4.8780517099e+00   -4.8648675748e+00   -4.8517545406e+00
   -4.8387119596e+00   -4.8257393152e+00   -4.8128360727e+00   -4.8000016772e+00
   -4.7872355467e+00   -4.7745371029e+00   -4.7619058742e+00   -4.7493413311e+00
   -4.7368429443e+00   -4.7244101188e+00   -4.7120423937e+00   -4.6997392806e+00
   -4.6875002747e+00   -4.6753248513e+00   -4.6632124702e+00   -4.6511627105e+00
   -4.6391750908e+00   -4.6272491297e+00   -4.6153842964e+00   -4.6035801425e+00
   -4.5918362390e+00   -4.5801521269e+00   -4.5685273472e+00   -4.5569613687e+00
   -4.5454538208e+00   -4.5340042697e+00   -4.5226122775e+00   -4.5112773896e+00
   -4.4999991316e+00   -4.4887771444e+00   -4.4776110107e+00   -4.4665003132e+00
   -4.4554446020e+00   -4.4444434592e+00   -4.4334965287e+00   -4.4226034125e+00
   -4.4117637131e+00   -4.4009769893e+00   -4.3902428680e+00   -4.3795609994e+00
   -4.3689310041e+00   -4.3583525032e+00   -4.3478250683e+00   -4.3373483595e+00
   -4.3269220369e+00   -4.3165457392e+00   -4.3062191047e+00   -4.2959417216e+00
   -4.2857132724e+00   -4.2755334309e+00   -4.2654018525e+00   -4.2553181926e+00
   -4.2452820585e+00   -4.2352931455e+00   -4.2253511443e+00   -4.2154557264e+00
   -4.2056065632e+00   -4.1958032844e+00   -4.1860455886e+00   -4.1763331866e+00
   -4.1666657653e+00   -4.1570430114e+00   -4.1474645795e+00   -4.1379301632e+00
   -4.1284394962e+00   -4.1189922798e+00   -4.1095882155e+00   -4.1002269859e+00
   -4.0909082710e+00   -4.0816318301e+00   -4.0723973783e+00   -4.0632046311e+00
   -4.0540533019e+00   -4.0449430498e+00   -4.0358736616e+00   -4.0268448658e+00
   -4.0178563910e+00   -4.0089079657e+00   -3.9999992767e+00   -3.9911300850e+00
   -3.9823001498e+00   -3.9735092124e+00   -3.9647570140e+00   -3.9560432774e+00
   -3.9473677258e+00   -3.9387301523e+00   -3.9301303103e+00   -3.9215679531e+00
   -3.9130428339e+00   -3.9045546578e+00   -3.8961032276e+00   -3.8876883163e+00
   -3.8793096887e+00   -3.8709671097e+00   -3.8626603253e+00   -3.8543890853e+00
   -3.8461532026e+00   -3.8379524529e+00   -3.8297866118e+00   -3.8216554553e+00
   -3.8135587185e+00   -3.8054962113e+00   -3.7974677337e+00   -3.7894730720e+00
   -3.7815120123e+00   -3.7735843361e+00   -3.7656897873e+00   -3.7578282098e+00
   -3.7499993998e+00   -3.7422031532e+00   -3.7344392664e+00   -3.7267075162e+00
   -3.7190076885e+00   -3.7113396217e+00   -3.7037031215e+00   -3.6960979936e+00
   -3.6885240434e+00   -3.6809810476e+00   -3.6734688243e+00   -3.6659872099e+00
   -3.6585360190e+00   -3.6511150664e+00   -3.6437241668e+00   -3.6363630996e+00
   -3.6290317065e+00   -3.6217298251e+00   -3.6144572787e+00   -3.6072138906e+00
   -3.5999994843e+00   -3.5928138453e+00   -3.5856568304e+00   -3.5785282817e+00
   -3.5714280307e+00   -3.5643559091e+00   -3.5573117483e+00   -3.5502953433e+00
   -3.5433065579e+00   -3.5363452418e+00   -3.5294112345e+00   -3.5225043754e+00
   -3.5156245040e+00   -3.5087714271e+00   -3.5019450081e+00   -3.4951451075e+00
   -3.4883715723e+00   -3.4816242494e+00   -3.4749029856e+00   -3.4682076026e+00
   -3.4615379564e+00   -3.4548939210e+00   -3.4482753504e+00   -3.4416820986e+00
   -3.4351140197e+00   -3.4285709528e+00   -3.4220527399e+00   -3.4155592708e+00
   -3.4090904065e+00   -3.4026460077e+00   -3.3962259353e+00   -3.3898300483e+00
   -3.3834581690e+00   -3.3771102051e+00   -3.3707860239e+00   -3.3644854929e+00
   -3.3582084793e+00   -3.3519548504e+00   -3.3457244455e+00   -3.3395171500e+00
   -3.3333328514e+00   -3.3271714231e+00   -3.3210327386e+00   -3.3149166715e+00
   -3.3088230860e+00   -3.3027518344e+00   -3.2967028277e+00   -3.2906759452e+00
   -3.2846710664e+00   -3.2786880706e+00   -3.2727268374e+00   -3.2667872181e+00
   -3.2608691116e+00   -3.2549724151e+00   -3.2490970137e+00   -3.2432427923e+00
   -3.2374096359e+00   -3.2315974259e+00   -3.2258060164e+00   -3.2200353326e+00
   -3.2142852650e+00   -3.2085557040e+00   -3.2028465398e+00   -3.1971576630e+00
   -3.1914889480e+00   -3.1858402805e+00   -3.1802115785e+00   -3.1746027374e+00
   -3.1690136527e+00   -3.1634442199e+00   -3.1578943344e+00   -3.1523638677e+00
   -3.1468527291e+00   -3.1413608321e+00   -3.1358880772e+00   -3.1304343647e+00
   -3.1249995949e+00   -3.1195836681e+00   -3.1141864557e+00   -3.1088078835e+00
   -3.1034478635e+00   -3.0981063010e+00   -3.0927831007e+00   -3.0874781678e+00
   -3.0821914073e+00   -3.0769226931e+00   -3.0716719605e+00   -3.0664391234e+00
   -3.0612240912e+00   -3.0560267733e+00   -3.0508470791e+00   -3.0456849181e+00
   -3.0405401697e+00   -3.0354127722e+00   -3.0303026439e+00   -3.0252096983e+00
   -3.0201338492e+00   -3.0150750102e+00   -3.0100330948e+00   -3.0050079908e+00
   -2.9999996329e+00   -2.9950079467e+00
  </PP_LOCAL>
 <PP_NONLOCAL>
   <PP_BETA.1
       type="real"
       size=" 602"
       columns="4"
       index="1"
       angular_momentum="0"
       cutoff_radius_index=" 240"
       cutoff_radius="    2.3900000000E+00" >
    0.0000000000E+00   -4.4061561419E-02   -8.8092501979E-02   -1.3206209095E-01
   -1.7593937897E-01   -2.1969309142E-01   -2.6329152508E-01   -3.0670244910E-01
   -3.4989301125E-01   -3.9282965048E-01   -4.3547801677E-01   -4.7780289906E-01
   -5.1976816228E-01   -5.6133669400E-01   -6.0247036174E-01   -6.4312998129E-01
   -6.8327529687E-01   -7.2286497337E-01   -7.6185660135E-01   -8.0020671496E-01
   -8.3787082305E-01   -8.7480345363E-01   -9.1095821188E-01   -9.4628785136E-01
   -9.8074435866E-01   -1.0142790512E+00   -1.0468426873E+00   -1.0783855894E+00
   -1.1088577786E+00   -1.1382091206E+00   -1.1663894828E+00   -1.1933489000E+00
   -1.2190377512E+00   -1.2434069442E+00   -1.2664081042E+00   -1.2879937764E+00
   -1.3081176222E+00   -1.3267346347E+00   -1.3438013425E+00   -1.3592760226E+00
   -1.3731189162E+00   -1.3852924396E+00   -1.3957613930E+00   -1.4044931689E+00
   -1.4114579551E+00   -1.4166289314E+00   -1.4199824590E+00   -1.4214982630E+00
   -1.4211596124E+00   -1.4189534752E+00   -1.4148706688E+00   -1.4089059958E+00
   -1.4010583941E+00   -1.3913310110E+00   -1.3797313211E+00   -1.3662712132E+00
   -1.3509670158E+00   -1.3338396023E+00   -1.3149143472E+00   -1.2942212057E+00
   -1.2717946463E+00   -1.2476736557E+00   -1.2219016887E+00   -1.1945265716E+00
   -1.1656004643E+00   -1.1351797176E+00   -1.1033247574E+00   -1.0700999552E+00
   -1.0355734550E+00   -9.9981700015E-01   -9.6290574741E-01   -9.2491804348E-01
   -8.8593520265E-01   -8.4604127398E-01   -8.0532278685E-01   -7.6386848639E-01
   -7.2176906500E-01   -6.7911687221E-01   -6.3600559347E-01   -5.9252998748E-01
   -5.4878556557E-01   -5.0486828011E-01   -4.6087420976E-01   -4.1689924306E-01
   -3.7303876169E-01   -3.2938732504E-01   -2.8603835734E-01   -2.4308383888E-01