<UPF version="2.0.1">
  <PP_INFO>

 Pd_ONCV_PBE_FR-1.0.upf

 This pseudopotential file has been produced using the code
 ONCVPSP  (Optimized Norm-Conservinng Vanderbilt PSeudopotential)
 fully-relativistic version 2.1.1, 03/26/2014 by D. R. Hamann
 The code is available through a link at URL www.mat-simresearch.com.
 Documentation with the package provides a full description of the
 input data below.

 While it is not required under the terms of the GNU GPL, it is
 suggested that you cite D. R. Hamann, Phys. Rev. B 88, 085117 (2013)
 in any publication using these pseudopotentials.

 -----

 This pseudopotential was produced with the SG15 1.0 and/or 1.1
 parameter sets, the Schlipf-Gygi norm-conserving pseudopotential
 library. For details of the construction and testing of the
 pseudopotential please refer to:

 M. Schlipf, F. Gygi, Comp. Phys. Comm. 196, 36 (2015)
 http://dx.doi.org/10.1016/j.cpc.2015.05.011

 The above authors kindly ask that you include this reference in all
 publications associated to this pseudopotential.

 Please note this fully-relativistic version does not employ the
 above self-consistent procedure at the fully-relativistic level.

 -----

 This pseudopotential was produced by Peter Scherpelz for the purpose
 of performing GW calculations with spin-orbit-coupling. Please see
 the publication:

 P. Scherpelz, M. Govoni, I. Hamada, G. Galli; J. Chem. Theory Comput. (2016)
 http://dx.doi.org/10.1021/acs.jctc.6b00114

 If you use these pseudopotentials in your work, we also kindly ask
 that you cite the above publication.

 -----

 This work is licensed under the Creative Commons Attribution-ShareAlike 
 4.0 International License. To view a copy of this license, visit 
 http://creativecommons.org/licenses/by-sa/4.0/ or send a letter to 
 Creative Commons, PO Box 1866, Mountain View, CA 94042, USA.

 The SG15 library is Copyright 2015 The Regents of the University of
 California.  Further modifications of these files are Copyright 2016
 Peter Scherpelz.

    <PP_INPUTFILE>
# ATOM AND REFERENCE CONFIGURATION
# atsym  z    nc    nv    iexc   psfile
  Pd 46.00     6     4     4      upf
#
#   n    l    f        energy (Ha)
    1    0    2.00
    2    0    2.00
    2    1    6.00
    3    0    2.00
    3    1    6.00
    3    2   10.00
    4    0    2.00
    4    1    6.00
    5    0    2.00
    4    2    8.00
#
# PSEUDOPOTENTIAL AND OPTIMIZATION
# lmax
    2
#
#   l,   rc,     ep,   ncon, nbas, qcut
    0    2.44   -3.40    5    8    5.63
    1    2.41   -2.09    5    8    5.81
    2    2.25   -0.35    5    8    6.63
#
# LOCAL POTENTIAL
# lloc, lpopt,  rc(5),   dvloc0
    4    5      1.41       0.00
#
# VANDERBILT-KLEINMAN-BYLANDER PROJECTORs
# l, nproj, debl
    0    2    3.2010
    1    2    2.0406
    2    2    1.1557
#
# MODEL CORE CHARGE
# icmod, fcfact
    0    0.00
#
# LOG DERIVATIVE ANALYSIS
# epsh1, epsh2, depsh
   -5.00    3.00    0.02
#
# OUTPUT GRID
# rlmax, drl
    6.00    0.01
#
# TEST CONFIGURATIONS
# ncnf
    0
# nvcnf
#   n    l    f
    </PP_INPUTFILE>
  </PP_INFO>
  <!--                               -->
  <!-- END OF HUMAN READABLE SECTION -->
  <!--                               -->
    <PP_HEADER
       generated="Generated using ONCVPSP code by D. R. Hamann"
       author="anonymous"
       date="150703"
       comment=""
       element="Pd"
       pseudo_type="NC"
       relativistic="full"
       is_ultrasoft="F"
       is_paw="F"
       is_coulomb="F"
       has_so="T"
       has_wfc="F"
       has_gipaw="F"
       core_correction="F"
       functional="PBE"
       z_valence="   18.00"
       total_psenergy="  -1.26368274870E+02"
       rho_cutoff="   6.01000000000E+00"
       l_max="2"
       l_local="-1"
       mesh_size="   602"
       number_of_wfc="0"
       number_of_proj="10"/>
 <PP_MESH>
   <PP_R type="real"  size=" 602" columns="8">
    0.0000    0.0100    0.0200    0.0300    0.0400    0.0500    0.0600    0.0700
    0.0800    0.0900    0.1000    0.1100    0.1200    0.1300    0.1400    0.1500
    0.1600    0.1700    0.1800    0.1900    0.2000    0.2100    0.2200    0.2300
    0.2400    0.2500    0.2600    0.2700    0.2800    0.2900    0.3000    0.3100
    0.3200    0.3300    0.3400    0.3500    0.3600    0.3700    0.3800    0.3900
    0.4000    0.4100    0.4200    0.4300    0.4400    0.4500    0.4600    0.4700
    0.4800    0.4900    0.5000    0.5100    0.5200    0.5300    0.5400    0.5500
    0.5600    0.5700    0.5800    0.5900    0.6000    0.6100    0.6200    0.6300
    0.6400    0.6500    0.6600    0.6700    0.6800    0.6900    0.7000    0.7100
    0.7200    0.7300    0.7400    0.7500    0.7600    0.7700    0.7800    0.7900
    0.8000    0.8100    0.8200    0.8300    0.8400    0.8500    0.8600    0.8700
    0.8800    0.8900    0.9000    0.9100    0.9200    0.9300    0.9400    0.9500
    0.9600    0.9700    0.9800    0.9900    1.0000    1.0100    1.0200    1.0300
    1.0400    1.0500    1.0600    1.0700    1.0800    1.0900    1.1000    1.1100
    1.1200    1.1300    1.1400    1.1500    1.1600    1.1700    1.1800    1.1900
    1.2000    1.2100    1.2200    1.2300    1.2400    1.2500    1.2600    1.2700
    1.2800    1.2900    1.3000    1.3100    1.3200    1.3300    1.3400    1.3500
    1.3600    1.3700    1.3800    1.3900    1.4000    1.4100    1.4200    1.4300
    1.4400    1.4500    1.4600    1.4700    1.4800    1.4900    1.5000    1.5100
    1.5200    1.5300    1.5400    1.5500    1.5600    1.5700    1.5800    1.5900
    1.6000    1.6100    1.6200    1.6300    1.6400    1.6500    1.6600    1.6700
    1.6800    1.6900    1.7000    1.7100    1.7200    1.7300    1.7400    1.7500
    1.7600    1.7700    1.7800    1.7900    1.8000    1.8100    1.8200    1.8300
    1.8400    1.8500    1.8600    1.8700    1.8800    1.8900    1.9000    1.9100
    1.9200    1.9300    1.9400    1.9500    1.9600    1.9700    1.9800    1.9900
    2.0000    2.0100    2.0200    2.0300    2.0400    2.0500    2.0600    2.0700
    2.0800    2.0900    2.1000    2.1100    2.1200    2.1300    2.1400    2.1500
    2.1600    2.1700    2.1800    2.1900    2.2000    2.2100    2.2200    2.2300
    2.2400    2.2500    2.2600    2.2700    2.2800    2.2900    2.3000    2.3100
    2.3200    2.3300    2.3400    2.3500    2.3600    2.3700    2.3800    2.3900
    2.4000    2.4100    2.4200    2.4300    2.4400    2.4500    2.4600    2.4700
    2.4800    2.4900    2.5000    2.5100    2.5200    2.5300    2.5400    2.5500
    2.5600    2.5700    2.5800    2.5900    2.6000    2.6100    2.6200    2.6300
    2.6400    2.6500    2.6600    2.6700    2.6800    2.6900    2.7000    2.7100
    2.7200    2.7300    2.7400    2.7500    2.7600    2.7700    2.7800    2.7900
    2.8000    2.8100    2.8200    2.8300    2.8400    2.8500    2.8600    2.8700
    2.8800    2.8900    2.9000    2.9100    2.9200    2.9300    2.9400    2.9500
    2.9600    2.9700    2.9800    2.9900    3.0000    3.0100    3.0200    3.0300
    3.0400    3.0500    3.0600    3.0700    3.0800    3.0900    3.1000    3.1100
    3.1200    3.1300    3.1400    3.1500    3.1600    3.1700    3.1800    3.1900
    3.2000    3.2100    3.2200    3.2300    3.2400    3.2500    3.2600    3.2700
    3.2800    3.2900    3.3000    3.3100    3.3200    3.3300    3.3400    3.3500
    3.3600    3.3700    3.3800    3.3900    3.4000    3.4100    3.4200    3.4300
    3.4400    3.4500    3.4600    3.4700    3.4800    3.4900    3.5000    3.5100
    3.5200    3.5300    3.5400    3.5500    3.5600    3.5700    3.5800    3.5900
    3.6000    3.6100    3.6200    3.6300    3.6400    3.6500    3.6600    3.6700
    3.6800    3.6900    3.7000    3.7100    3.7200    3.7300    3.7400    3.7500
    3.7600    3.7700    3.7800    3.7900    3.8000    3.8100    3.8200    3.8300
    3.8400    3.8500    3.8600    3.8700    3.8800    3.8900    3.9000    3.9100
    3.9200    3.9300    3.9400    3.9500    3.9600    3.9700    3.9800    3.9900
    4.0000    4.0100    4.0200    4.0300    4.0400    4.0500    4.0600    4.0700
    4.0800    4.0900    4.1000    4.1100    4.1200    4.1300    4.1400    4.1500
    4.1600    4.1700    4.1800    4.1900    4.2000    4.2100    4.2200    4.2300
    4.2400    4.2500    4.2600    4.2700    4.2800    4.2900    4.3000    4.3100
    4.3200    4.3300    4.3400    4.3500    4.3600    4.3700    4.3800    4.3900
    4.4000    4.4100    4.4200    4.4300    4.4400    4.4500    4.4600    4.4700
    4.4800    4.4900    4.5000    4.5100    4.5200    4.5300    4.5400    4.5500
    4.5600    4.5700    4.5800    4.5900    4.6000    4.6100    4.6200    4.6300
    4.6400    4.6500    4.6600    4.6700    4.6800    4.6900    4.7000    4.7100
    4.7200    4.7300    4.7400    4.7500    4.7600    4.7700    4.7800    4.7900
    4.8000    4.8100    4.8200    4.8300    4.8400    4.8500    4.8600    4.8700
    4.8800    4.8900    4.9000    4.9100    4.9200    4.9300    4.9400    4.9500
    4.9600    4.9700    4.9800    4.9900    5.0000    5.0100    5.0200    5.0300
    5.0400    5.0500    5.0600    5.0700    5.0800    5.0900    5.1000    5.1100
    5.1200    5.1300    5.1400    5.1500    5.1600    5.1700    5.1800    5.1900
    5.2000    5.2100    5.2200    5.2300    5.2400    5.2500    5.2600    5.2700
    5.2800    5.2900    5.3000    5.3100    5.3200    5.3300    5.3400    5.3500
    5.3600    5.3700    5.3800    5.3900    5.4000    5.4100    5.4200    5.4300
    5.4400    5.4500    5.4600    5.4700    5.4800    5.4900    5.5000    5.5100
    5.5200    5.5300    5.5400    5.5500    5.5600    5.5700    5.5800    5.5900
    5.6000    5.6100    5.6200    5.6300    5.6400    5.6500    5.6600    5.6700
    5.6800    5.6900    5.7000    5.7100    5.7200    5.7300    5.7400    5.7500
    5.7600    5.7700    5.7800    5.7900    5.8000    5.8100    5.8200    5.8300
    5.8400    5.8500    5.8600    5.8700    5.8800    5.8900    5.9000    5.9100
    5.9200    5.9300    5.9400    5.9500    5.9600    5.9700    5.9800    5.9900
    6.0000    6.0100
   </PP_R>
   <PP_RAB type="real"  size=" 602" columns="8">
    0.0100    0.0100    0.0100    0.0100    0.0100    0.0100    0.0100    0.0100
    0.0100    0.0100    0.0100    0.0100    0.0100    0.0100    0.0100    0.0100
    0.0100    0.0100    0.0100    0.0100    0.0100    0.0100    0.0100    0.0100
    0.0100    0.0100    0.0100    0.0100    0.0100    0.0100    0.0100    0.0100
    0.0100    0.0100    0.0100    0.0100    0.0100    0.0100    0.0100    0.0100
    0.0100    0.0100    0.0100    0.0100    0.0100    0.0100    0.0100    0.0100
    0.0100    0.0100    0.0100    0.0100    0.0100    0.0100    0.0100    0.0100
    0.0100    0.0100    0.0100    0.0100    0.0100    0.0100    0.0100    0.0100
    0.0100    0.0100    0.0100    0.0100    0.0100    0.0100    0.0100    0.0100
    0.0100    0.0100    0.0100    0.0100    0.0100    0.0100    0.0100    0.0100
    0.0100    0.0100    0.0100    0.0100    0.0100    0.0100    0.0100    0.0100
    0.0100    0.0100    0.0100    0.0100    0.0100    0.0100    0.0100    0.0100
    0.0100    0.0100    0.0100    0.0100    0.0100    0.0100    0.0100    0.0100
    0.0100    0.0100    0.0100    0.0100    0.0100    0.0100    0.0100    0.0100
    0.0100    0.0100    0.0100    0.0100    0.0100    0.0100    0.0100    0.0100
    0.0100    0.0100    0.0100    0.0100    0.0100    0.0100    0.0100    0.0100
    0.0100    0.0100    0.0100    0.0100    0.0100    0.0100    0.0100    0.0100
    0.0100    0.0100    0.0100    0.0100    0.0100    0.0100    0.0100    0.0100
    0.0100    0.0100    0.0100    0.0100    0.0100    0.0100    0.0100    0.0100
    0.0100    0.0100    0.0100    0.0100    0.0100    0.0100    0.0100    0.0100
    0.0100    0.0100    0.0100    0.0100    0.0100    0.0100    0.0100    0.0100
    0.0100    0.0100    0.0100    0.0100    0.0100    0.0100    0.0100    0.0100
    0.0100    0.0100    0.0100    0.0100    0.0100    0.0100    0.0100    0.0100
    0.0100    0.0100    0.0100    0.0100    0.0100    0.0100    0.0100    0.0100
    0.0100    0.0100    0.0100    0.0100    0.0100    0.0100    0.0100    0.0100
    0.0100    0.0100    0.0100    0.0100    0.0100    0.0100    0.0100    0.0100
    0.0100    0.0100    0.0100    0.0100    0.0100    0.0100    0.0100    0.0100
    0.0100    0.0100    0.0100    0.0100    0.0100    0.0100    0.0100    0.0100
    0.0100    0.0100    0.0100    0.0100    0.0100    0.0100    0.0100    0.0100
    0.0100    0.0100    0.0100    0.0100    0.0100    0.0100    0.0100    0.0100
    0.0100    0.0100    0.0100    0.0100    0.0100    0.0100    0.0100    0.0100
    0.0100    0.0100    0.0100    0.0100    0.0100    0.0100    0.0100    0.0100
    0.0100    0.0100    0.0100    0.0100    0.0100    0.0100    0.0100    0.0100
    0.0100    0.0100    0.0100    0.0100    0.0100    0.0100    0.0100    0.0100
    0.0100    0.0100    0.0100    0.0100    0.0100    0.0100    0.0100    0.0100
    0.0100    0.0100    0.0100    0.0100    0.0100    0.0100    0.0100    0.0100
    0.0100    0.0100    0.0100    0.0100    0.0100    0.0100    0.0100    0.0100
    0.0100    0.0100    0.0100    0.0100    0.0100    0.0100    0.0100    0.0100
    0.0100    0.0100    0.0100    0.0100    0.0100    0.0100    0.0100    0.0100
    0.0100    0.0100    0.0100    0.0100    0.0100    0.0100    0.0100    0.0100
    0.0100    0.0100    0.0100    0.0100    0.0100    0.0100    0.0100    0.0100
    0.0100    0.0100    0.0100    0.0100    0.0100    0.0100    0.0100    0.0100
    0.0100    0.0100    0.0100    0.0100    0.0100    0.0100    0.0100    0.0100
    0.0100    0.0100    0.0100    0.0100    0.0100    0.0100    0.0100    0.0100
    0.0100    0.0100    0.0100    0.0100    0.0100    0.0100    0.0100    0.0100
    0.0100    0.0100    0.0100    0.0100    0.0100    0.0100    0.0100    0.0100
    0.0100    0.0100    0.0100    0.0100    0.0100    0.0100    0.0100    0.0100
    0.0100    0.0100    0.0100    0.0100    0.0100    0.0100    0.0100    0.0100
    0.0100    0.0100    0.0100    0.0100    0.0100    0.0100    0.0100    0.0100
    0.0100    0.0100    0.0100    0.0100    0.0100    0.0100    0.0100    0.0100
    0.0100    0.0100    0.0100    0.0100    0.0100    0.0100    0.0100    0.0100
    0.0100    0.0100    0.0100    0.0100    0.0100    0.0100    0.0100    0.0100
    0.0100    0.0100    0.0100    0.0100    0.0100    0.0100    0.0100    0.0100
    0.0100    0.0100    0.0100    0.0100    0.0100    0.0100    0.0100    0.0100
    0.0100    0.0100    0.0100    0.0100    0.0100    0.0100    0.0100    0.0100
    0.0100    0.0100    0.0100    0.0100    0.0100    0.0100    0.0100    0.0100
    0.0100    0.0100    0.0100    0.0100    0.0100    0.0100    0.0100    0.0100
    0.0100    0.0100    0.0100    0.0100    0.0100    0.0100    0.0100    0.0100
    0.0100    0.0100    0.0100    0.0100    0.0100    0.0100    0.0100    0.0100
    0.0100    0.0100    0.0100    0.0100    0.0100    0.0100    0.0100    0.0100
    0.0100    0.0100    0.0100    0.0100    0.0100    0.0100    0.0100    0.0100
    0.0100    0.0100    0.0100    0.0100    0.0100    0.0100    0.0100    0.0100
    0.0100    0.0100    0.0100    0.0100    0.0100    0.0100    0.0100    0.0100
    0.0100    0.0100    0.0100    0.0100    0.0100    0.0100    0.0100    0.0100
    0.0100    0.0100    0.0100    0.0100    0.0100    0.0100    0.0100    0.0100
    0.0100    0.0100    0.0100    0.0100    0.0100    0.0100    0.0100    0.0100
    0.0100    0.0100    0.0100    0.0100    0.0100    0.0100    0.0100    0.0100
    0.0100    0.0100    0.0100    0.0100    0.0100    0.0100    0.0100    0.0100
    0.0100    0.0100    0.0100    0.0100    0.0100    0.0100    0.0100    0.0100
    0.0100    0.0100    0.0100    0.0100    0.0100    0.0100    0.0100    0.0100
    0.0100    0.0100    0.0100    0.0100    0.0100    0.0100    0.0100    0.0100
    0.0100    0.0100    0.0100    0.0100    0.0100    0.0100    0.0100    0.0100
    0.0100    0.0100    0.0100    0.0100    0.0100    0.0100    0.0100    0.0100
    0.0100    0.0100    0.0100    0.0100    0.0100    0.0100    0.0100    0.0100
    0.0100    0.0100    0.0100    0.0100    0.0100    0.0100    0.0100    0.0100
    0.0100    0.0100
   </PP_RAB>
 </PP_MESH>
  <PP_LOCAL type="real"  size=" 602" columns="4">
   -5.4783743444E+01   -5.4781421355E+01   -5.4774494214E+01   -5.4762918935E+01
   -5.4746652429E+01   -5.4725638141E+01   -5.4699809407E+01   -5.4669093250E+01
   -5.4633414311E+01   -5.4592698641E+01   -5.4546877128E+01   -5.4495888364E+01
   -5.4439680884E+01   -5.4378214710E+01   -5.4311462240E+01   -5.4239408542E+01
   -5.4162051137E+01   -5.4079399399E+01   -5.3991473647E+01   -5.3898304070E+01
   -5.3799929534E+01   -5.3696396380E+01   -5.3587757242E+01   -5.3474069935E+01
   -5.3355396448E+01   -5.3231802036E+01   -5.3103354434E+01   -5.2970123187E+01
   -5.2832179081E+01   -5.2689593677E+01   -5.2542438932E+01   -5.2390786896E+01
   -5.2234709468E+01   -5.2074278218E+01   -5.1909564239E+01   -5.1740638046E+01
   -5.1567569503E+01   -5.1390427766E+01   -5.1209281251E+01   -5.1024197615E+01
   -5.0835243747E+01   -5.0642485766E+01   -5.0445989036E+01   -5.0245818176E+01
   -5.0042037082E+01   -4.9834708961E+01   -4.9623896357E+01   -4.9409661202E+01
   -4.9192064859E+01   -4.8971168186E+01   -4.8747031599E+01   -4.8519715160E+01
   -4.8289278657E+01   -4.8055781715E+01   -4.7819283909E+01   -4.7579844894E+01
   -4.7337524541E+01   -4.7092383108E+01   -4.6844481382E+01   -4.6593880895E+01
   -4.6340644060E+01   -4.6084834431E+01   -4.5826516855E+01   -4.5565757677E+01
   -4.5302625005E+01   -4.5037188832E+01   -4.4769521238E+01   -4.4499696661E+01
   -4.4227791966E+01   -4.3953886601E+01   -4.3678062736E+01   -4.3400405433E+01
   -4.3121002617E+01   -4.2839945153E+01   -4.2557326856E+01   -4.2273244453E+01
   -4.1987797553E+01   -4.1701088578E+01   -4.1413222592E+01   -4.1124307174E+01
   -4.0834452243E+01   -4.0543769862E+01   -4.0252374015E+01   -3.9960380373E+01
   -3.9667906043E+01   -3.9375069309E+01   -3.9081989360E+01   -3.8788786028E+01
   -3.8495579512E+01   -3.8202490113E+01   -3.7909637975E+01   -3.7617142826E+01
   -3.7325123735E+01   -3.7033698880E+01   -3.6742985331E+01   -3.6453098860E+01
   -3.6164153644E+01   -3.5876262173E+01   -3.5589535040E+01   -3.5304080782E+01
   -3.5020005724E+01   -3.4737413838E+01   -3.4456406782E+01   -3.4177083265E+01
   -3.3899539384E+01   -3.3623868383E+01   -3.3350160540E+01   -3.3078503313E+01
   -3.2808980608E+01   -3.2541673082E+01   -3.2276658106E+01   -3.2014009776E+01
   -3.1753798652E+01   -3.1496091132E+01   -3.1240950177E+01   -3.0988435266E+01
   -3.0738601818E+01   -3.0491500707E+01   -3.0247179131E+01   -3.0005680964E+01
   -2.9767044479E+01   -2.9531304047E+01   -2.9298490485E+01   -2.9068629587E+01
   -2.8841742033E+01   -2.8617845097E+01   -2.8396951307E+01   -2.8179067233E+01
   -2.7964196329E+01   -2.7752337053E+01   -2.7543481643E+01   -2.7337619666E+01
   -2.7134734710E+01   -2.6934804702E+01   -2.6737805448E+01   -2.6543704894E+01
   -2.6352467265E+01   -2.6164053850E+01   -2.5978417266E+01   -2.5795508933E+01
   -2.5615273474E+01   -2.5437650507E+01   -2.5262576855E+01   -2.5089986672E+01
   -2.4919815154E+01   -2.4752000176E+01   -2.4586481530E+01   -2.4423200061E+01
   -2.4262100441E+01   -2.4103126734E+01   -2.3946227731E+01   -2.3791351863E+01
   -2.3638450900E+01   -2.3487477885E+01   -2.3338387468E+01   -2.3191137052E+01
   -2.3045684100E+01   -2.2901990005E+01   -2.2760014969E+01   -2.2619723813E+01
   -2.2481079753E+01   -2.2344050207E+01   -2.2208601405E+01   -2.2074702978E+01
   -2.1942323855E+01   -2.1811435694E+01   -2.1682009768E+01   -2.1554019619E+01
   -2.1427438561E+01   -2.1302241901E+01   -2.1178404743E+01   -2.1055904091E+01
   -2.0934716645E+01   -2.0814821083E+01   -2.0696195548E+01   -2.0578820409E+01
   -2.0462675135E+01   -2.0347741820E+01   -2.0234001161E+01   -2.0121436936E+01
   -2.0010031196E+01   -1.9899769074E+01   -1.9790634295E+01   -1.9682612937E+01
   -1.9575690477E+01   -1.9469853753E+01   -1.9365089903E+01   -1.9261386382E+01
   -1.9158731748E+01   -1.9057114012E+01   -1.8956522735E+01   -1.8856946595E+01
   -1.8758375550E+01   -1.8660799113E+01   -1.8564207186E+01   -1.8468589783E+01
   -1.8373936842E+01   -1.8280238355E+01   -1.8187484423E+01   -1.8095664698E+01
   -1.8004769157E+01   -1.7914787291E+01   -1.7825708547E+01   -1.7737522437E+01
   -1.7650217744E+01   -1.7563783808E+01   -1.7478209107E+01   -1.7393482342E+01
   -1.7309592094E+01   -1.7226526492E+01   -1.7144274004E+01   -1.7062822649E+01
   -1.6982160543E+01   -1.6902275821E+01   -1.6823156628E+01   -1.6744790921E+01
   -1.6667167173E+01   -1.6590273637E+01   -1.6514098616E+01   -1.6438631217E+01
   -1.6363859765E+01   -1.6289773734E+01   -1.6216362721E+01   -1.6143615453E+01
   -1.6071523005E+01   -1.6000075196E+01   -1.5929262458E+01   -1.5859076720E+01
   -1.5789508769E+01   -1.5720550517E+01   -1.5652194010E+01   -1.5584430724E+01
   -1.5517253163E+01   -1.5450653382E+01   -1.5384623344E+01   -1.5319156102E+01
   -1.5254244067E+01   -1.5189879956E+01   -1.5126057110E+01   -1.5062768264E+01
   -1.5000006780E+01   -1.4937766306E+01   -1.4876039948E+01   -1.4814821595E+01
   -1.4754105159E+01   -1.4693884107E+01   -1.4634152715E+01   -1.4574905129E+01
   -1.4516135116E+01   -1.4457837262E+01   -1.4400005942E+01   -1.4342635156E+01
   -1.4285719808E+01   -1.4229254529E+01   -1.4173233605E+01   -1.4117652174E+01
   -1.4062505117E+01   -1.4007786982E+01   -1.3953493112E+01   -1.3899618640E+01
   -1.3846158381E+01   -1.3793107840E+01   -1.3740462402E+01   -1.3688217149E+01
   -1.3636367706E+01   -1.3584909715E+01   -1.3533838525E+01   -1.3483149843E+01
   -1.3432839566E+01   -1.3382903314E+01   -1.3333336843E+01   -1.3284136300E+01
   -1.3235297581E+01   -1.3186816459E+01   -1.3138689329E+01   -1.3090912328E+01
   -1.3043481324E+01   -1.2996392854E+01   -1.2949643265E+01   -1.2903228691E+01
   -1.2857145612E+01   -1.2811390639E+01   -1.2765960182E+01   -1.2720850635E+01
   -1.2676058864E+01   -1.2631581525E+01   -1.2587415020E+01   -1.2543556350E+01
   -1.2500002360E+01   -1.2456749724E+01   -1.2413795297E+01   -1.2371136189E+01
   -1.2328769358E+01   -1.2286691498E+01   -1.2244899967E+01   -1.2203391867E+01
   -1.2162164160E+01   -1.2121214006E+01   -1.2080538779E+01   -1.2040135713E+01
   -1.2000001801E+01   -1.1960134623E+01   -1.1920531557E+01   -1.1881189873E+01
   -1.1842106903E+01   -1.1803280300E+01   -1.1764707549E+01   -1.1726385955E+01
   -1.1688313198E+01   -1.1650486951E+01   -1.1612904805E+01   -1.1575564155E+01
   -1.1538462941E+01   -1.1501598877E+01   -1.1464969597E+01   -1.1428572770E+01
   -1.1392406377E+01   -1.1356468240E+01   -1.1320756047E+01   -1.1285267704E+01
   -1.1250001238E+01   -1.1214954572E+01   -1.1180125457E+01   -1.1145512001E+01
   -1.1111112283E+01   -1.1076924321E+01   -1.1042945937E+01   -1.1009175408E+01
   -1.0975610869E+01   -1.0942250430E+01   -1.0909091992E+01   -1.0876133967E+01
   -1.0843374552E+01   -1.0810811937E+01   -1.0778444139E+01   -1.0746269639E+01
   -1.0714286721E+01   -1.0682493655E+01   -1.0650888551E+01   -1.0619469962E+01
   -1.0588236253E+01   -1.0557185783E+01   -1.0526316726E+01   -1.0495627716E+01
   -1.0465117192E+01   -1.0434783594E+01   -1.0404625182E+01   -1.0374640627E+01
   -1.0344828456E+01   -1.0315187182E+01   -1.0285715167E+01   -1.0256411083E+01
   -1.0227273557E+01   -1.0198301170E+01   -1.0169492390E+01   -1.0140845873E+01
   -1.0112360344E+01   -1.0084034452E+01   -1.0055866779E+01   -1.0027855938E+01
   -1.0000000763E+01   -9.9722999629E+00   -9.9447522390E+00   -9.9173561484E+00
   -9.8901106290E+00   -9.8630144520E+00   -9.8360663883E+00   -9.8092650819E+00
   -9.7826094193E+00   -9.7560982802E+00   -9.7297304931E+00   -9.7035048297E+00
   -9.6774200732E+00   -9.6514752248E+00   -9.6256691671E+00   -9.6000007830E+00
   -9.5744688096E+00   -9.5490722978E+00   -9.5238102048E+00   -9.4986814656E+00
   -9.4736849527E+00   -9.4488195764E+00   -9.4240844257E+00   -9.3994784853E+00
   -9.3750007397E+00   -9.3506500426E+00   -9.3264255165E+00   -9.3023262239E+00
   -9.2783511966E+00   -9.2544994336E+00   -9.2307698836E+00   -9.2071617480E+00
   -9.1836741039E+00   -9.1603060283E+00   -9.1370565141E+00   -9.1139246727E+00
   -9.0909096961E+00   -9.0680107043E+00   -9.0452268173E+00   -9.0225570326E+00
   -9.0000005973E+00   -8.9775567005E+00   -8.9552245032E+00   -8.9330031606E+00
   -8.9108917017E+00   -8.8888894652E+00   -8.8669956511E+00   -8.8452094596E+00
   -8.8235300609E+00   -8.8019565781E+00   -8.7804883622E+00   -8.7591246507E+00
   -8.7378646808E+00   -8.7167076457E+00   -8.6956527403E+00   -8.6746993346E+00
   -8.6538467013E+00   -8.6330941135E+00   -8.6124407941E+00   -8.5918859889E+00
   -8.5714290932E+00   -8.5510694136E+00   -8.5308062570E+00   -8.5106388830E+00
   -8.4905665682E+00   -8.4705887395E+00   -8.4507047360E+00   -8.4309138967E+00
   -8.4112155243E+00   -8.3916089072E+00   -8.3720935102E+00   -8.3526687032E+00
   -8.3333338560E+00   -8.3140883201E+00   -8.2949313786E+00   -8.2758625395E+00
   -8.2568812019E+00   -8.2379867652E+00   -8.2191786285E+00   -8.2004560742E+00
   -8.1818186376E+00   -8.1632657526E+00   -8.1447968465E+00   -8.1264113465E+00
   -8.1081085953E+00   -8.0898880841E+00   -8.0717493053E+00   -8.0536917127E+00
   -8.0357147602E+00   -8.0178178570E+00   -8.0000004354E+00   -7.9822620499E+00
   -7.9646021801E+00   -7.9470203051E+00   -7.9295159045E+00   -7.9120883440E+00
   -7.8947372385E+00   -7.8774620929E+00   -7.8602624110E+00   -7.8431376964E+00
   -7.8260873907E+00   -7.8091110186E+00   -7.7922081596E+00   -7.7753783405E+00
   -7.7586210882E+00   -7.7419359263E+00   -7.7253222782E+00   -7.7087797991E+00
   -7.6923080378E+00   -7.6759065431E+00   -7.6595748638E+00   -7.6433124998E+00
   -7.6271189971E+00   -7.6109939862E+00   -7.5949370368E+00   -7.5789477187E+00
   -7.5630256018E+00   -7.5471701714E+00   -7.5313810756E+00   -7.5156579261E+00
   -7.5000003127E+00   -7.4844078252E+00   -7.4688800446E+00   -7.4534164771E+00
   -7.4380168255E+00   -7.4226806986E+00   -7.4074077055E+00   -7.3921974552E+00
   -7.3770495256E+00   -7.3619634911E+00   -7.3469390496E+00   -7.3319758282E+00
   -7.3170734541E+00   -7.3022315545E+00   -7.2874497118E+00   -7.2727275507E+00
   -7.2580647703E+00   -7.2434610154E+00   -7.2289159305E+00   -7.2144291601E+00
   -7.2000002976E+00   -7.1856290010E+00   -7.1713149775E+00   -7.1570578882E+00
   -7.1428573943E+00   -7.1287131568E+00   -7.1146247863E+00   -7.1005919582E+00
   -7.0866143938E+00   -7.0726917699E+00   -7.0588237636E+00   -7.0450100516E+00
   -7.0312502675E+00   -7.0175440890E+00   -7.0038912573E+00   -6.9902914645E+00
   -6.9767444025E+00   -6.9632497632E+00   -6.9498072087E+00   -6.9364164049E+00
   -6.9230771184E+00   -6.9097890557E+00   -6.8965519229E+00   -6.8833654265E+00
   -6.8702292623E+00   -6.8571430714E+00   -6.8441066508E+00   -6.8311197204E+00
   -6.8181820002E+00   -6.8052932102E+00   -6.7924530705E+00   -6.7796612300E+00
   -6.7669174754E+00   -6.7542215547E+00   -6.7415732007E+00   -6.7289721467E+00
   -6.7164181257E+00   -6.7039108310E+00   -6.6914499960E+00   -6.6790354111E+00
   -6.6666668217E+00   -6.6543439734E+00   -6.6420666115E+00   -6.6298344791E+00
   -6.6176472457E+00   -6.6055047471E+00   -6.5934067408E+00   -6.5813529840E+00
   -6.5693432341E+00   -6.5573772484E+00   -6.5454547429E+00   -6.5335754828E+00
   -6.5217392757E+00   -6.5099458904E+00   -6.4981950955E+00   -6.4864866597E+00
   -6.4748203515E+00   -6.4631958682E+00   -6.4516130533E+00   -6.4400716924E+00
   -6.4285715650E+00   -6.4171124506E+00   -6.4056941285E+00   -6.3943163591E+00
   -6.3829788859E+00   -6.3716815559E+00   -6.3604241589E+00   -6.3492064844E+00
   -6.3380283223E+00   -6.3268894621E+00   -6.3157896567E+00   -6.3047286993E+00
   -6.2937064276E+00   -6.2827226408E+00   -6.2717771386E+00   -6.2608697204E+00
   -6.2500001858E+00   -6.2391682860E+00   -6.2283738498E+00   -6.2176167109E+00
   -6.2068966782E+00   -6.1962135605E+00   -6.1855671667E+00   -6.1749573056E+00
   -6.1643837331E+00   -6.1538462991E+00   -6.1433448396E+00   -6.1328791724E+00
   -6.1224491153E+00   -6.1120544859E+00   -6.1016951022E+00   -6.0913707300E+00
   -6.0810812271E+00   -6.0708264376E+00   -6.0606061878E+00   -6.0504203038E+00
   -6.0402686121E+00   -6.0301509387E+00   -6.0200670649E+00   -6.0100168440E+00
   -6.0000001335E+00   -5.9900167678E+00
  </PP_LOCAL>
 <PP_NONLOCAL>
   <PP_BETA.1
       type="real"
       size=" 602"
       columns="4"
       index="1"
       angular_momentum="0"
       cutoff_radius_index=" 248"
       cutoff_radius="    2.4700000000E+00" >
    0.0000000000E+00    8.4621002122E-03    1.6882658548E-02    2.5220200463E-02
    3.3433386057E-02    4.1481077324E-02    4.9322405340E-02    5.6916837340E-02
    6.4224243669E-02    7.1204964590E-02    7.7819876907E-02    8.4030460398E-02
    8.9798864012E-02    9.5087971838E-02    9.9861468771E-02    1.0408390592E-01
    1.0772076563E-01    1.1073852624E-01    1.1310472639E-01    1.1478802891E-01
    1.1575828431E-01    1.1598659379E-01    1.1544537166E-01    1.1410840728E-01
    1.1195092621E-01    1.0894965110E-01    1.0508286108E-01    1.0033045132E-01
    9.4673990875E-02    8.8096779964E-02    8.0583906134E-02    7.2122299205E-02
    6.2700784580E-02    5.2310136562E-02    4.0943127682E-02    2.8594578759E-02
    1.5261405176E-02    9.4266321451E-04   -1.4360408586E-02   -3.0644348362E-02
   -4.7903432234E-02   -6.6129640607E-02   -8.5312625856E-02   -1.0543968382E-01
   -1.2649572886E-01   -1.4846327289E-01   -1.7132240843E-01   -1.9505079678E-01
   -2.1962365889E-01   -2.4501377309E-01   -2.7119147827E-01   -2.9812468281E-01
   -3.2577887517E-01   -3.5411714736E-01   -3.8310022091E-01   -4.1268647852E-01
   -4.4283200615E-01   -4.7349064051E-01   -5.0461402123E-01   -5.3615166010E-01
   -5.6805100092E-01   -6.0025751174E-01   -6.3271476071E-01   -6.6536451033E-01
   -6.9814683774E-01   -7.3100022564E-01   -7.6386168333E-01   -7.9666690457E-01