<UPF version="2.0.1">
  <PP_INFO>

 Pt_ONCV_PBE_FR-1.0.upf

 This pseudopotential file has been produced using the code
 ONCVPSP  (Optimized Norm-Conservinng Vanderbilt PSeudopotential)
 fully-relativistic version 2.1.1, 03/26/2014 by D. R. Hamann
 The code is available through a link at URL www.mat-simresearch.com.
 Documentation with the package provides a full description of the
 input data below.

 While it is not required under the terms of the GNU GPL, it is
 suggested that you cite D. R. Hamann, Phys. Rev. B 88, 085117 (2013)
 in any publication using these pseudopotentials.

 -----

 This pseudopotential was produced with the SG15 1.0 and/or 1.1
 parameter sets, the Schlipf-Gygi norm-conserving pseudopotential
 library. For details of the construction and testing of the
 pseudopotential please refer to:

 M. Schlipf, F. Gygi, Comp. Phys. Comm. 196, 36 (2015)
 http://dx.doi.org/10.1016/j.cpc.2015.05.011

 The above authors kindly ask that you include this reference in all
 publications associated to this pseudopotential.

 Please note this fully-relativistic version does not employ the
 above self-consistent procedure at the fully-relativistic level.

 -----

 This pseudopotential was produced by Peter Scherpelz for the purpose
 of performing GW calculations with spin-orbit-coupling. Please see
 the publication:

 P. Scherpelz, M. Govoni, I. Hamada, G. Galli; J. Chem. Theory Comput. (2016)
 http://dx.doi.org/10.1021/acs.jctc.6b00114

 If you use these pseudopotentials in your work, we also kindly ask
 that you cite the above publication.

 -----

 This work is licensed under the Creative Commons Attribution-ShareAlike 
 4.0 International License. To view a copy of this license, visit 
 http://creativecommons.org/licenses/by-sa/4.0/ or send a letter to 
 Creative Commons, PO Box 1866, Mountain View, CA 94042, USA.

 The SG15 library is Copyright 2015 The Regents of the University of
 California.  Further modifications of these files are Copyright 2016
 Peter Scherpelz.

    <PP_INPUTFILE>
# ATOM AND REFERENCE CONFIGURATION
# atsym  z    nc    nv    iexc   psfile
  Pt 78.00    10     4     4      upf
#
#   n    l    f        energy (Ha)
    1    0    2.00
    2    0    2.00
    2    1    6.00
    3    0    2.00
    3    1    6.00
    3    2   10.00
    4    0    2.00
    4    1    6.00
    4    2   10.00
    4    3   14.00
    5    0    2.00
    5    1    6.00
    6    0    2.00
    5    2    8.00
#
# PSEUDOPOTENTIAL AND OPTIMIZATION
# lmax
    3
#
#   l,   rc,     ep,   ncon, nbas, qcut
    0    2.32   -3.83    5    8    7.09
    1    2.32   -2.00    5    8    6.90
    2    2.21   -0.28    5    8    6.73
    3    3.02    0.20    5    8    5.51
#
# LOCAL POTENTIAL
# lloc, lpopt,  rc(5),   dvloc0
    4    5      1.42       0.00
#
# VANDERBILT-KLEINMAN-BYLANDER PROJECTORs
# l, nproj, debl
    0    2    3.5940
    1    2    1.9653
    2    2    1.7369
    3    2    1.5263
#
# MODEL CORE CHARGE
# icmod, fcfact
    0    0.00
#
# LOG DERIVATIVE ANALYSIS
# epsh1, epsh2, depsh
   -5.00    3.00    0.02
#
# OUTPUT GRID
# rlmax, drl
    6.00    0.01
#
# TEST CONFIGURATIONS
# ncnf
    0
# nvcnf
#   n    l    f
    </PP_INPUTFILE>
  </PP_INFO>
  <!--                               -->
  <!-- END OF HUMAN READABLE SECTION -->
  <!--                               -->
    <PP_HEADER
       generated="Generated using ONCVPSP code by D. R. Hamann"
       author="anonymous"
       date="150703"
       comment=""
       element="Pt"
       pseudo_type="NC"
       relativistic="full"
       is_ultrasoft="F"
       is_paw="F"
       is_coulomb="F"
       has_so="T"
       has_wfc="F"
       has_gipaw="F"
       core_correction="F"
       functional="PBE"
       z_valence="   18.00"
       total_psenergy="  -1.21182798960E+02"
       rho_cutoff="   6.01000000000E+00"
       l_max="3"
       l_local="-1"
       mesh_size="   602"
       number_of_wfc="0"
       number_of_proj="14"/>
 <PP_MESH>
   <PP_R type="real"  size=" 602" columns="8">
    0.0000    0.0100    0.0200    0.0300    0.0400    0.0500    0.0600    0.0700
    0.0800    0.0900    0.1000    0.1100    0.1200    0.1300    0.1400    0.1500
    0.1600    0.1700    0.1800    0.1900    0.2000    0.2100    0.2200    0.2300
    0.2400    0.2500    0.2600    0.2700    0.2800    0.2900    0.3000    0.3100
    0.3200    0.3300    0.3400    0.3500    0.3600    0.3700    0.3800    0.3900
    0.4000    0.4100    0.4200    0.4300    0.4400    0.4500    0.4600    0.4700
    0.4800    0.4900    0.5000    0.5100    0.5200    0.5300    0.5400    0.5500
    0.5600    0.5700    0.5800    0.5900    0.6000    0.6100    0.6200    0.6300
    0.6400    0.6500    0.6600    0.6700    0.6800    0.6900    0.7000    0.7100
    0.7200    0.7300    0.7400    0.7500    0.7600    0.7700    0.7800    0.7900
    0.8000    0.8100    0.8200    0.8300    0.8400    0.8500    0.8600    0.8700
    0.8800    0.8900    0.9000    0.9100    0.9200    0.9300    0.9400    0.9500
    0.9600    0.9700    0.9800    0.9900    1.0000    1.0100    1.0200    1.0300
    1.0400    1.0500    1.0600    1.0700    1.0800    1.0900    1.1000    1.1100
    1.1200    1.1300    1.1400    1.1500    1.1600    1.1700    1.1800    1.1900
    1.2000    1.2100    1.2200    1.2300    1.2400    1.2500    1.2600    1.2700
    1.2800    1.2900    1.3000    1.3100    1.3200    1.3300    1.3400    1.3500
    1.3600    1.3700    1.3800    1.3900    1.4000    1.4100    1.4200    1.4300
    1.4400    1.4500    1.4600    1.4700    1.4800    1.4900    1.5000    1.5100
    1.5200    1.5300    1.5400    1.5500    1.5600    1.5700    1.5800    1.5900
    1.6000    1.6100    1.6200    1.6300    1.6400    1.6500    1.6600    1.6700
    1.6800    1.6900    1.7000    1.7100    1.7200    1.7300    1.7400    1.7500
    1.7600    1.7700    1.7800    1.7900    1.8000    1.8100    1.8200    1.8300
    1.8400    1.8500    1.8600    1.8700    1.8800    1.8900    1.9000    1.9100
    1.9200    1.9300    1.9400    1.9500    1.9600    1.9700    1.9800    1.9900
    2.0000    2.0100    2.0200    2.0300    2.0400    2.0500    2.0600    2.0700
    2.0800    2.0900    2.1000    2.1100    2.1200    2.1300    2.1400    2.1500
    2.1600    2.1700    2.1800    2.1900    2.2000    2.2100    2.2200    2.2300
    2.2400    2.2500    2.2600    2.2700    2.2800    2.2900    2.3000    2.3100
    2.3200    2.3300    2.3400    2.3500    2.3600    2.3700    2.3800    2.3900
    2.4000    2.4100    2.4200    2.4300    2.4400    2.4500    2.4600    2.4700
    2.4800    2.4900    2.5000    2.5100    2.5200    2.5300    2.5400    2.5500
    2.5600    2.5700    2.5800    2.5900    2.6000    2.6100    2.6200    2.6300
    2.6400    2.6500    2.6600    2.6700    2.6800    2.6900    2.7000    2.7100
    2.7200    2.7300    2.7400    2.7500    2.7600    2.7700    2.7800    2.7900
    2.8000    2.8100    2.8200    2.8300    2.8400    2.8500    2.8600    2.8700
    2.8800    2.8900    2.9000    2.9100    2.9200    2.9300    2.9400    2.9500
    2.9600    2.9700    2.9800    2.9900    3.0000    3.0100    3.0200    3.0300
    3.0400    3.0500    3.0600    3.0700    3.0800    3.0900    3.1000    3.1100
    3.1200    3.1300    3.1400    3.1500    3.1600    3.1700    3.1800    3.1900
    3.2000    3.2100    3.2200    3.2300    3.2400    3.2500    3.2600    3.2700
    3.2800    3.2900    3.3000    3.3100    3.3200    3.3300    3.3400    3.3500
    3.3600    3.3700    3.3800    3.3900    3.4000    3.4100    3.4200    3.4300
    3.4400    3.4500    3.4600    3.4700    3.4800    3.4900    3.5000    3.5100
    3.5200    3.5300    3.5400    3.5500    3.5600    3.5700    3.5800    3.5900
    3.6000    3.6100    3.6200    3.6300    3.6400    3.6500    3.6600    3.6700
    3.6800    3.6900    3.7000    3.7100    3.7200    3.7300    3.7400    3.7500
    3.7600    3.7700    3.7800    3.7900    3.8000    3.8100    3.8200    3.8300
    3.8400    3.8500    3.8600    3.8700    3.8800    3.8900    3.9000    3.9100
    3.9200    3.9300    3.9400    3.9500    3.9600    3.9700    3.9800    3.9900
    4.0000    4.0100    4.0200    4.0300    4.0400    4.0500    4.0600    4.0700
    4.0800    4.0900    4.1000    4.1100    4.1200    4.1300    4.1400    4.1500
    4.1600    4.1700    4.1800    4.1900    4.2000    4.2100    4.2200    4.2300
    4.2400    4.2500    4.2600    4.2700    4.2800    4.2900    4.3000    4.3100
    4.3200    4.3300    4.3400    4.3500    4.3600    4.3700    4.3800    4.3900
    4.4000    4.4100    4.4200    4.4300    4.4400    4.4500    4.4600    4.4700
    4.4800    4.4900    4.5000    4.5100    4.5200    4.5300    4.5400    4.5500
    4.5600    4.5700    4.5800    4.5900    4.6000    4.6100    4.6200    4.6300
    4.6400    4.6500    4.6600    4.6700    4.6800    4.6900    4.7000    4.7100
    4.7200    4.7300    4.7400    4.7500    4.7600    4.7700    4.7800    4.7900
    4.8000    4.8100    4.8200    4.8300    4.8400    4.8500    4.8600    4.8700
    4.8800    4.8900    4.9000    4.9100    4.9200    4.9300    4.9400    4.9500
    4.9600    4.9700    4.9800    4.9900    5.0000    5.0100    5.0200    5.0300
    5.0400    5.0500    5.0600    5.0700    5.0800    5.0900    5.1000    5.1100
    5.1200    5.1300    5.1400    5.1500    5.1600    5.1700    5.1800    5.1900
    5.2000    5.2100    5.2200    5.2300    5.2400    5.2500    5.2600    5.2700
    5.2800    5.2900    5.3000    5.3100    5.3200    5.3300    5.3400    5.3500
    5.3600    5.3700    5.3800    5.3900    5.4000    5.4100    5.4200    5.4300
    5.4400    5.4500    5.4600    5.4700    5.4800    5.4900    5.5000    5.5100
    5.5200    5.5300    5.5400    5.5500    5.5600    5.5700    5.5800    5.5900
    5.6000    5.6100    5.6200    5.6300    5.6400    5.6500    5.6600    5.6700
    5.6800    5.6900    5.7000    5.7100    5.7200    5.7300    5.7400    5.7500
    5.7600    5.7700    5.7800    5.7900    5.8000    5.8100    5.8200    5.8300
    5.8400    5.8500    5.8600    5.8700    5.8800    5.8900    5.9000    5.9100
    5.9200    5.9300    5.9400    5.9500    5.9600    5.9700    5.9800    5.9900
    6.0000    6.0100
   </PP_R>
   <PP_RAB type="real"  size=" 602" columns="8">
    0.0100    0.0100    0.0100    0.0100    0.0100    0.0100    0.0100    0.0100
    0.0100    0.0100    0.0100    0.0100    0.0100    0.0100    0.0100    0.0100
    0.0100    0.0100    0.0100    0.0100    0.0100    0.0100    0.0100    0.0100
    0.0100    0.0100    0.0100    0.0100    0.0100    0.0100    0.0100    0.0100
    0.0100    0.0100    0.0100    0.0100    0.0100    0.0100    0.0100    0.0100
    0.0100    0.0100    0.0100    0.0100    0.0100    0.0100    0.0100    0.0100
    0.0100    0.0100    0.0100    0.0100    0.0100    0.0100    0.0100    0.0100
    0.0100    0.0100    0.0100    0.0100    0.0100    0.0100    0.0100    0.0100
    0.0100    0.0100    0.0100    0.0100    0.0100    0.0100    0.0100    0.0100
    0.0100    0.0100    0.0100    0.0100    0.0100    0.0100    0.0100    0.0100
    0.0100    0.0100    0.0100    0.0100    0.0100    0.0100    0.0100    0.0100
    0.0100    0.0100    0.0100    0.0100    0.0100    0.0100    0.0100    0.0100
    0.0100    0.0100    0.0100    0.0100    0.0100    0.0100    0.0100    0.0100
    0.0100    0.0100    0.0100    0.0100    0.0100    0.0100    0.0100    0.0100
    0.0100    0.0100    0.0100    0.0100    0.0100    0.0100    0.0100    0.0100
    0.0100    0.0100    0.0100    0.0100    0.0100    0.0100    0.0100    0.0100
    0.0100    0.0100    0.0100    0.0100    0.0100    0.0100    0.0100    0.0100
    0.0100    0.0100    0.0100    0.0100    0.0100    0.0100    0.0100    0.0100
    0.0100    0.0100    0.0100    0.0100    0.0100    0.0100    0.0100    0.0100
    0.0100    0.0100    0.0100    0.0100    0.0100    0.0100    0.0100    0.0100
    0.0100    0.0100    0.0100    0.0100    0.0100    0.0100    0.0100    0.0100
    0.0100    0.0100    0.0100    0.0100    0.0100    0.0100    0.0100    0.0100
    0.0100    0.0100    0.0100    0.0100    0.0100    0.0100    0.0100    0.0100
    0.0100    0.0100    0.0100    0.0100    0.0100    0.0100    0.0100    0.0100
    0.0100    0.0100    0.0100    0.0100    0.0100    0.0100    0.0100    0.0100
    0.0100    0.0100    0.0100    0.0100    0.0100    0.0100    0.0100    0.0100
    0.0100    0.0100    0.0100    0.0100    0.0100    0.0100    0.0100    0.0100
    0.0100    0.0100    0.0100    0.0100    0.0100    0.0100    0.0100    0.0100
    0.0100    0.0100    0.0100    0.0100    0.0100    0.0100    0.0100    0.0100
    0.0100    0.0100    0.0100    0.0100    0.0100    0.0100    0.0100    0.0100
    0.0100    0.0100    0.0100    0.0100    0.0100    0.0100    0.0100    0.0100
    0.0100    0.0100    0.0100    0.0100    0.0100    0.0100    0.0100    0.0100
    0.0100    0.0100    0.0100    0.0100    0.0100    0.0100    0.0100    0.0100
    0.0100    0.0100    0.0100    0.0100    0.0100    0.0100    0.0100    0.0100
    0.0100    0.0100    0.0100    0.0100    0.0100    0.0100    0.0100    0.0100
    0.0100    0.0100    0.0100    0.0100    0.0100    0.0100    0.0100    0.0100
    0.0100    0.0100    0.0100    0.0100    0.0100    0.0100    0.0100    0.0100
    0.0100    0.0100    0.0100    0.0100    0.0100    0.0100    0.0100    0.0100
    0.0100    0.0100    0.0100    0.0100    0.0100    0.0100    0.0100    0.0100
    0.0100    0.0100    0.0100    0.0100    0.0100    0.0100    0.0100    0.0100
    0.0100    0.0100    0.0100    0.0100    0.0100    0.0100    0.0100    0.0100
    0.0100    0.0100    0.0100    0.0100    0.0100    0.0100    0.0100    0.0100
    0.0100    0.0100    0.0100    0.0100    0.0100    0.0100    0.0100    0.0100
    0.0100    0.0100    0.0100    0.0100    0.0100    0.0100    0.0100    0.0100
    0.0100    0.0100    0.0100    0.0100    0.0100    0.0100    0.0100    0.0100
    0.0100    0.0100    0.0100    0.0100    0.0100    0.0100    0.0100    0.0100
    0.0100    0.0100    0.0100    0.0100    0.0100    0.0100    0.0100    0.0100
    0.0100    0.0100    0.0100    0.0100    0.0100    0.0100    0.0100    0.0100
    0.0100    0.0100    0.0100    0.0100    0.0100    0.0100    0.0100    0.0100
    0.0100    0.0100    0.0100    0.0100    0.0100    0.0100    0.0100    0.0100
    0.0100    0.0100    0.0100    0.0100    0.0100    0.0100    0.0100    0.0100
    0.0100    0.0100    0.0100    0.0100    0.0100    0.0100    0.0100    0.0100
    0.0100    0.0100    0.0100    0.0100    0.0100    0.0100    0.0100    0.0100
    0.0100    0.0100    0.0100    0.0100    0.0100    0.0100    0.0100    0.0100
    0.0100    0.0100    0.0100    0.0100    0.0100    0.0100    0.0100    0.0100
    0.0100    0.0100    0.0100    0.0100    0.0100    0.0100    0.0100    0.0100
    0.0100    0.0100    0.0100    0.0100    0.0100    0.0100    0.0100    0.0100
    0.0100    0.0100    0.0100    0.0100    0.0100    0.0100    0.0100    0.0100
    0.0100    0.0100    0.0100    0.0100    0.0100    0.0100    0.0100    0.0100
    0.0100    0.0100    0.0100    0.0100    0.0100    0.0100    0.0100    0.0100
    0.0100    0.0100    0.0100    0.0100    0.0100    0.0100    0.0100    0.0100
    0.0100    0.0100    0.0100    0.0100    0.0100    0.0100    0.0100    0.0100
    0.0100    0.0100    0.0100    0.0100    0.0100    0.0100    0.0100    0.0100
    0.0100    0.0100    0.0100    0.0100    0.0100    0.0100    0.0100    0.0100
    0.0100    0.0100    0.0100    0.0100    0.0100    0.0100    0.0100    0.0100
    0.0100    0.0100    0.0100    0.0100    0.0100    0.0100    0.0100    0.0100
    0.0100    0.0100    0.0100    0.0100    0.0100    0.0100    0.0100    0.0100
    0.0100    0.0100    0.0100    0.0100    0.0100    0.0100    0.0100    0.0100
    0.0100    0.0100    0.0100    0.0100    0.0100    0.0100    0.0100    0.0100
    0.0100    0.0100    0.0100    0.0100    0.0100    0.0100    0.0100    0.0100
    0.0100    0.0100    0.0100    0.0100    0.0100    0.0100    0.0100    0.0100
    0.0100    0.0100    0.0100    0.0100    0.0100    0.0100    0.0100    0.0100
    0.0100    0.0100    0.0100    0.0100    0.0100    0.0100    0.0100    0.0100
    0.0100    0.0100    0.0100    0.0100    0.0100    0.0100    0.0100    0.0100
    0.0100    0.0100    0.0100    0.0100    0.0100    0.0100    0.0100    0.0100
    0.0100    0.0100
   </PP_RAB>
 </PP_MESH>
  <PP_LOCAL type="real"  size=" 602" columns="4">
   -5.6412965647E+01   -5.6410549458E+01   -5.6403388043E+01   -5.6391381083E+01
   -5.6374428258E+01   -5.6352401391E+01   -5.6325154804E+01   -5.6292536323E+01
   -5.6254397780E+01   -5.6210604088E+01   -5.6161040287E+01   -5.6105616290E+01
   -5.6044269351E+01   -5.5976964524E+01   -5.5903693488E+01   -5.5824472203E+01
   -5.5739337824E+01   -5.5648345260E+01   -5.5551563677E+01   -5.5449073175E+01
   -5.5340961776E+01   -5.5227322806E+01   -5.5108252694E+01   -5.4983849193E+01
   -5.4854209977E+01   -5.4719431578E+01   -5.4579608619E+01   -5.4434833277E+01
   -5.4285194957E+01   -5.4130780104E+01   -5.3971672145E+01   -5.3807951519E+01
   -5.3639695767E+01   -5.3466979679E+01   -5.3289875460E+01   -5.3108452941E+01
   -5.2922779768E+01   -5.2732921636E+01   -5.2538942503E+01   -5.2340904807E+01
   -5.2138869694E+01   -5.1932897230E+01   -5.1723046618E+01   -5.1509376411E+01
   -5.1291944723E+01   -5.1070809434E+01   -5.0846028399E+01   -5.0617659647E+01
   -5.0385761581E+01   -5.0150393176E+01   -4.9911614175E+01   -4.9669485277E+01
   -4.9424068307E+01   -4.9175426431E+01   -4.8923624285E+01   -4.8668728161E+01
   -4.8410806166E+01   -4.8149928333E+01   -4.7886166792E+01   -4.7619595846E+01
   -4.7350292087E+01   -4.7078334506E+01   -4.6803804452E+01   -4.6526785851E+01
   -4.6247365084E+01   -4.5965631004E+01   -4.5681675051E+01   -4.5395591085E+01
   -4.5107475361E+01   -4.4817426498E+01   -4.4525545400E+01   -4.4231935103E+01
   -4.3936700684E+01   -4.3639949118E+01   -4.3341789154E+01   -4.3042331181E+01
   -4.2741687027E+01   -4.2439969815E+01   -4.2137293788E+01   -4.1833774142E+01
   -4.1529526847E+01   -4.1224668473E+01   -4.0919316020E+01   -4.0613586741E+01
   -4.0307597978E+01   -4.0001466994E+01   -3.9695310809E+01   -3.9389246052E+01
   -3.9083388799E+01   -3.8777854434E+01   -3.8472757506E+01   -3.8168211588E+01
   -3.7864329151E+01   -3.7561221434E+01   -3.7258998324E+01   -3.6957768235E+01
   -3.6657638000E+01   -3.6358712826E+01   -3.6061096003E+01   -3.5764888954E+01
   -3.5470191097E+01   -3.5177099747E+01   -3.4885710019E+01   -3.4596114823E+01
   -3.4308404627E+01   -3.4022667291E+01   -3.3738988188E+01   -3.3457450041E+01
   -3.3178133000E+01   -3.2901114250E+01   -3.2626467869E+01   -3.2354265080E+01
   -3.2084574165E+01   -3.1817460387E+01   -3.1552985155E+01   -3.1291206863E+01
   -3.1032180831E+01   -3.0775958732E+01   -3.0522588161E+01   -3.0272113453E+01
   -3.0024576070E+01   -2.9780012176E+01   -2.9538454664E+01   -2.9299933347E+01
   -2.9064473031E+01   -2.8832094305E+01   -2.8602814828E+01   -2.8376647192E+01
   -2.8153599182E+01   -2.7933675910E+01   -2.7716876789E+01   -2.7503196394E+01
   -2.7292627009E+01   -2.7085153760E+01   -2.6880757898E+01   -2.6679418167E+01
   -2.6481104660E+01   -2.6285785727E+01   -2.6093424159E+01   -2.5903975908E+01
   -2.5717396062E+01   -2.5533629705E+01   -2.5352620235E+01   -2.5174304348E+01
   -2.4998617720E+01   -2.4825494386E+01   -2.4654873014E+01   -2.4486692144E+01
   -2.4320893426E+01   -2.4157420041E+01   -2.3996216308E+01   -2.3837229757E+01
   -2.3680407324E+01   -2.3525700304E+01   -2.3373058976E+01   -2.3222437315E+01
   -2.3073789187E+01   -2.2927070974E+01   -2.2782239945E+01   -2.2639254805E+01
   -2.2498075976E+01   -2.2358664427E+01   -2.2220983475E+01   -2.2084996295E+01
   -2.1950668857E+01   -2.1817966484E+01   -2.1686857558E+01   -2.1557309499E+01
   -2.1429292872E+01   -2.1302777133E+01   -2.1177734817E+01   -2.1054137351E+01
   -2.0931959035E+01   -2.0811173204E+01   -2.0691755722E+01   -2.0573681765E+01
   -2.0456928574E+01   -2.0341473093E+01   -2.0227293757E+01   -2.0114369199E+01
   -2.0002678887E+01   -1.9892203043E+01   -1.9782922027E+01   -1.9674817536E+01
   -1.9567870710E+01   -1.9462064578E+01   -1.9357380975E+01   -1.9253803956E+01
   -1.9151316446E+01   -1.9049902911E+01   -1.8949547459E+01   -1.8850234847E+01
   -1.8751950245E+01   -1.8654678658E+01   -1.8558406155E+01   -1.8463118031E+01
   -1.8368800920E+01   -1.8275440828E+01   -1.8183024440E+01   -1.8091538542E+01
   -1.8000969859E+01   -1.7911305825E+01   -1.7822533328E+01   -1.7734640142E+01
   -1.7647613699E+01   -1.7561441731E+01   -1.7476112313E+01   -1.7391613120E+01
   -1.7307932704E+01   -1.7225059141E+01   -1.7142980952E+01   -1.7061686877E+01
   -1.6981165291E+01   -1.6901405474E+01   -1.6822396196E+01   -1.6744126671E+01
   -1.6666586422E+01   -1.6589764437E+01   -1.6513650799E+01   -1.6438235032E+01
   -1.6363506958E+01   -1.6289457133E+01   -1.6216075159E+01   -1.6143352282E+01
   -1.6071279623E+01   -1.5999847769E+01   -1.5929048889E+01   -1.5858874435E+01
   -1.5789316095E+01   -1.5720365978E+01   -1.5652015651E+01   -1.5584257508E+01
   -1.5517084019E+01   -1.5450487118E+01   -1.5384459841E+01   -1.5318994806E+01
   -1.5254084480E+01   -1.5189722274E+01   -1.5125901089E+01   -1.5062613975E+01
   -1.4999854571E+01   -1.4937616043E+01   -1.4875891923E+01   -1.4814676097E+01
   -1.4753962002E+01   -1.4693743592E+01   -1.4634015001E+01   -1.4574769941E+01
   -1.4516002732E+01   -1.4457707756E+01   -1.4399878998E+01   -1.4342511091E+01
   -1.4285598666E+01   -1.4229135981E+01   -1.4173117932E+01   -1.4117539401E+01
   -1.4062394916E+01   -1.4007679591E+01   -1.3953388559E+01   -1.3899516619E+01
   -1.3846059059E+01   -1.3793011266E+01   -1.3740368307E+01   -1.3688125606E+01
   -1.3636278801E+01   -1.3584823230E+01   -1.3533754415E+01   -1.3483068245E+01
   -1.3432760330E+01   -1.3382826255E+01   -1.3333262158E+01   -1.3284063922E+01
   -1.3235227168E+01   -1.3186748274E+01   -1.3138623329E+01   -1.3090848178E+01
   -1.3043419221E+01   -1.2996332797E+01   -1.2949585024E+01   -1.2903172250E+01
   -1.2857091078E+01   -1.2811337900E+01   -1.2765908993E+01   -1.2720801210E+01
   -1.2676011161E+01   -1.2631535227E+01   -1.2587370308E+01   -1.2543513233E+01
   -1.2499960659E+01   -1.2456709345E+01   -1.2413756385E+01   -1.2371098699E+01
   -1.2328732955E+01   -1.2286656433E+01   -1.2244866216E+01   -1.2203359244E+01
   -1.2162132606E+01   -1.2121183655E+01   -1.2080509589E+01   -1.2040107376E+01
   -1.1999974537E+01   -1.1960108428E+01   -1.1920506292E+01   -1.1881165411E+01
   -1.1842083412E+01   -1.1803257751E+01   -1.1764685703E+01   -1.1726364905E+01
   -1.1688293009E+01   -1.1650467574E+01   -1.1612885961E+01   -1.1575546084E+01
   -1.1538445627E+01   -1.1501582194E+01   -1.1464953429E+01   -1.1428557285E+01
   -1.1392391556E+01   -1.1356453896E+01   -1.1320742197E+01   -1.1285254456E+01
   -1.1249988569E+01   -1.1214942252E+01   -1.1180113607E+01   -1.1145500679E+01
   -1.1111101463E+01   -1.1076913746E+01   -1.1042935803E+01   -1.1009165736E+01
   -1.0975601619E+01   -1.0942241356E+01   -1.0909083324E+01   -1.0876125702E+01
   -1.0843366638E+01   -1.0810804161E+01   -1.0778436718E+01   -1.0746262570E+01
   -1.0714279949E+01   -1.0682486980E+01   -1.0650882184E+01   -1.0619463902E+01
   -1.0588230455E+01   -1.0557180037E+01   -1.0526311247E+01   -1.0495622504E+01
   -1.0465112224E+01   -1.0434778643E+01   -1.0404620446E+01   -1.0374636124E+01
   -1.0344824173E+01   -1.0315182911E+01   -1.0285711049E+01   -1.0256407169E+01
   -1.0227269837E+01   -1.0198297477E+01   -1.0169488784E+01   -1.0140842445E+01
   -1.0112357088E+01   -1.0084031252E+01   -1.0055863595E+01   -1.0027852908E+01
   -9.9999978858E+00   -9.9722971814E+00   -9.9447494011E+00   -9.9173534416E+00
   -9.8901080585E+00   -9.8630120069E+00   -9.8360638856E+00   -9.8092626367E+00
   -9.7826070939E+00   -9.7560960704E+00   -9.7297282898E+00   -9.7035025952E+00
   -9.6774179423E+00   -9.6514731995E+00   -9.6256672226E+00   -9.5999987414E+00
   -9.5744668317E+00   -9.5490704149E+00   -9.5238084122E+00   -9.4986796462E+00
   -9.4736830957E+00   -9.4488178018E+00   -9.4240827363E+00   -9.3994768629E+00
   -9.3749990105E+00   -9.3506483502E+00   -9.3264239014E+00   -9.3023246836E+00
   -9.2783496436E+00   -9.2544978050E+00   -9.2307683211E+00   -9.2071602571E+00
   -9.1836726779E+00   -9.1603045252E+00   -9.1370549899E+00   -9.1139232124E+00
   -9.0909083014E+00   -9.0680093511E+00   -9.0452253525E+00   -9.0225555911E+00
   -8.9999992170E+00   -8.9775553803E+00   -8.9552231815E+00   -8.9330017336E+00
   -8.9108903258E+00   -8.8888881476E+00   -8.8669943891E+00   -8.8452081651E+00
   -8.8235286872E+00   -8.8019552544E+00   -8.7804870944E+00   -8.7591234345E+00
   -8.7378634125E+00   -8.7167063151E+00   -8.6956514585E+00   -8.6746981063E+00
   -8.6538455221E+00   -8.6330928728E+00   -8.6124394990E+00   -8.5918847411E+00
   -8.5714278971E+00   -8.5510682646E+00   -8.5308050469E+00   -8.5106376176E+00
   -8.4905653484E+00   -8.4705875698E+00   -8.4507036124E+00   -8.4309127212E+00
   -8.4112142843E+00   -8.3916077108E+00   -8.3720923626E+00   -8.3526676013E+00
   -8.3333327198E+00   -8.3140871026E+00   -8.2949302023E+00   -8.2758614105E+00
   -8.2568801186E+00   -8.2379856733E+00   -8.2191774384E+00   -8.2004549155E+00
   -8.1818175245E+00   -8.1632646852E+00   -8.1447958035E+00   -8.1264102077E+00
   -8.1081074525E+00   -8.0898869848E+00   -8.0717482514E+00   -8.0536906993E+00
   -8.0357136784E+00   -8.0178167294E+00   -7.9999993481E+00   -7.9822610074E+00
   -7.9646011797E+00   -7.9470192852E+00   -7.9295147936E+00   -7.9120872679E+00
   -7.8947362052E+00   -7.8774611028E+00   -7.8602614565E+00   -7.8431366535E+00
   -7.8260863255E+00   -7.8091099932E+00   -7.7922071772E+00   -7.7753773981E+00
   -7.7586201184E+00   -7.7419348732E+00   -7.7253212602E+00   -7.7087788223E+00
   -7.6923071025E+00   -7.6759056438E+00   -7.6595738859E+00   -7.6433114898E+00
   -7.6271180247E+00   -7.6109930550E+00   -7.5949361448E+00   -7.5789468233E+00
   -7.5630246240E+00   -7.5471692034E+00   -7.5313801463E+00   -7.5156570371E+00
   -7.4999994604E+00   -7.4844069347E+00   -7.4688790834E+00   -7.4534155493E+00
   -7.4380159364E+00   -7.4226798485E+00   -7.4074068897E+00   -7.3921965762E+00
   -7.3770486011E+00   -7.3619626008E+00   -7.3469381976E+00   -7.3319750139E+00
   -7.3170726689E+00   -7.3022306933E+00   -7.2874488220E+00   -7.2727266950E+00
   -7.2580639523E+00   -7.2434602339E+00   -7.2289151671E+00   -7.2144283222E+00
   -7.1999994399E+00   -7.1856281771E+00   -7.1713141904E+00   -7.1570571366E+00
   -7.1428566577E+00   -7.1287123474E+00   -7.1146239583E+00   -7.1005911631E+00
   -7.0866136346E+00   -7.0726910455E+00   -7.0588230584E+00   -7.0450092754E+00
   -7.0312494666E+00   -7.0175433198E+00   -7.0038905231E+00   -6.9902907644E+00
   -6.9767437318E+00   -6.9632490247E+00   -6.9498064324E+00   -6.9364156588E+00
   -6.9230764062E+00   -6.9097883771E+00   -6.8965512742E+00   -6.8833647297E+00
   -6.8702285087E+00   -6.8571423459E+00   -6.8441059577E+00   -6.8311190606E+00
   -6.8181813708E+00   -6.8052925587E+00   -6.7924523525E+00   -6.7796605227E+00
   -6.7669167989E+00   -6.7542209107E+00   -6.7415725877E+00   -6.7289715435E+00
   -6.7164174575E+00   -6.7039101402E+00   -6.6914493337E+00   -6.6790347802E+00
   -6.6666662220E+00   -6.6543434012E+00   -6.6420659966E+00   -6.6298338036E+00
   -6.6176465956E+00   -6.6055041267E+00   -6.5934061513E+00   -6.5813524234E+00
   -6.5693426750E+00   -6.5573766272E+00   -6.5454541039E+00   -6.5335748708E+00
   -6.5217386936E+00   -6.5099453379E+00   -6.4981945694E+00   -6.4864860984E+00
   -6.4748197297E+00   -6.4631952635E+00   -6.4516124763E+00   -6.4400711447E+00
   -6.4285710454E+00   -6.4171119508E+00   -6.4056935698E+00   -6.3943157614E+00
   -6.3829783126E+00   -6.3716810104E+00   -6.3604236418E+00   -6.3492059938E+00
   -6.3380278291E+00   -6.3268889109E+00   -6.3157890870E+00   -6.3047281544E+00
   -6.2937059101E+00   -6.2827221508E+00   -6.2717766736E+00   -6.2608692379E+00
   -6.2499996464E+00   -6.2391677417E+00   -6.2283733301E+00   -6.2176162181E+00
   -6.2068962120E+00   -6.1962131182E+00   -6.1855666990E+00   -6.1749567823E+00
   -6.1643832114E+00   -6.1538458015E+00   -6.1433443683E+00   -6.1328787269E+00
   -6.1224486929E+00   -6.1120540370E+00   -6.1016945989E+00   -6.0913702281E+00
   -6.0810807487E+00   -6.0708259848E+00   -6.0606057601E+00   -6.0504198989E+00
   -6.0402681855E+00   -6.0301504589E+00   -6.0200665804E+00   -6.0100163821E+00
   -5.9999996963E+00   -5.9900163552E+00
  </PP_LOCAL>
 <PP_NONLOCAL>
   <PP_BETA.1
       type="real"
       size=" 602"
       columns="4"
       index="1"
       angular_momentum="0"
       cutoff_radius_index=" 306"
       cutoff_radius="    3.0500000000E+00" >
    0.0000000000E+00    9.0682091423E-03    1.8096239831E-02    2.7043921875E-02
    3.5871102226E-02    4.4537655091E-02    5.3003493884E-02    6.1228585592E-02
    6.9172968133E-02    7.6796771238E-02    8.4060241362E-02    9.0923771101E-02
    9.7347933534E-02    1.0329352189E-01    1.0872159487E-01    1.1359352790E-01
    1.1787107055E-01    1.2151641030E-01    1.2449224273E-01    1.2676184827E-01
    1.2828917531E-01    1.2903892985E-01    1.2897667124E-01    1.2806891415E-01
    1.2628323601E-01    1.2358839021E-01    1.1995442394E-01    1.1535280099E-01
    1.0975652795E-01    1.0314028434E-01    9.5480555378E-02    8.6755766778E-02
    7.6946420630E-02    6.6035231607E-02    5.4007265797E-02    4.0850070861E-02
    2.6553816170E-02    1.1111416827E-02   -5.4813375686E-03   -2.3225659073E-02
   -4.2119648764E-02   -6.2158186284E-02   -8.3332828158E-02   -1.0563171467E-01
   -1.2903948622E-01   -1.5353720989E-01   -1.7910231733E-01   -2.0570855451E-01
   -2.3332594578E-01   -2.6192076795E-01   -2.9145553719E-01   -3.2188901985E-01
   -3.5317625382E-01   -3.8526857103E-01   -4.1811366548E-01   -4.5165565058E-01
   -4.8583514778E-01   -5.2058938682E-01   -5.5585232508E-01   -5.9155478010E-01