<UPF version="2.0.1">
  <PP_INFO>

 Re_ONCV_PBE_FR-1.0.upf

 This pseudopotential file has been produced using the code
 ONCVPSP  (Optimized Norm-Conservinng Vanderbilt PSeudopotential)
 fully-relativistic version 2.1.1, 03/26/2014 by D. R. Hamann
 The code is available through a link at URL www.mat-simresearch.com.
 Documentation with the package provides a full description of the
 input data below.

 While it is not required under the terms of the GNU GPL, it is
 suggested that you cite D. R. Hamann, Phys. Rev. B 88, 085117 (2013)
 in any publication using these pseudopotentials.

 -----

 This pseudopotential was produced with the SG15 1.0 and/or 1.1
 parameter sets, the Schlipf-Gygi norm-conserving pseudopotential
 library. For details of the construction and testing of the
 pseudopotential please refer to:

 M. Schlipf, F. Gygi, Comp. Phys. Comm. 196, 36 (2015)
 http://dx.doi.org/10.1016/j.cpc.2015.05.011

 The above authors kindly ask that you include this reference in all
 publications associated to this pseudopotential.

 Please note this fully-relativistic version does not employ the
 above self-consistent procedure at the fully-relativistic level.

 -----

 This pseudopotential was produced by Peter Scherpelz for the purpose
 of performing GW calculations with spin-orbit-coupling. Please see
 the publication:

 P. Scherpelz, M. Govoni, I. Hamada, G. Galli; J. Chem. Theory Comput. (2016)
 http://dx.doi.org/10.1021/acs.jctc.6b00114

 If you use these pseudopotentials in your work, we also kindly ask
 that you cite the above publication.

 -----

 This work is licensed under the Creative Commons Attribution-ShareAlike 
 4.0 International License. To view a copy of this license, visit 
 http://creativecommons.org/licenses/by-sa/4.0/ or send a letter to 
 Creative Commons, PO Box 1866, Mountain View, CA 94042, USA.

 The SG15 library is Copyright 2015 The Regents of the University of
 California.  Further modifications of these files are Copyright 2016
 Peter Scherpelz.

    <PP_INPUTFILE>
# ATOM AND REFERENCE CONFIGURATION
# atsym  z    nc    nv    iexc   psfile
  Re 75.00    10     4     4      upf
#
#   n    l    f        energy (Ha)
    1    0    2.00
    2    0    2.00
    2    1    6.00
    3    0    2.00
    3    1    6.00
    3    2   10.00
    4    0    2.00
    4    1    6.00
    4    2   10.00
    4    3   14.00
    5    0    2.00
    5    1    6.00
    6    0    2.00
    5    2    5.00
#
# PSEUDOPOTENTIAL AND OPTIMIZATION
# lmax
    3
#
#   l,   rc,     ep,   ncon, nbas, qcut
    0    1.99   -3.13    5    8    7.08
    1    2.07   -1.62    5    8    6.99
    2    1.79   -0.18    5    8    7.20
    3    2.62    0.17    5    8    5.49
#
# LOCAL POTENTIAL
# lloc, lpopt,  rc(5),   dvloc0
    4    5      1.19       0.00
#
# VANDERBILT-KLEINMAN-BYLANDER PROJECTORs
# l, nproj, debl
    0    2    2.9070
    1    2    1.5717
    2    2    1.1489
    3    2    1.2821
#
# MODEL CORE CHARGE
# icmod, fcfact
    0    0.00
#
# LOG DERIVATIVE ANALYSIS
# epsh1, epsh2, depsh
   -5.00    3.00    0.02
#
# OUTPUT GRID
# rlmax, drl
    6.00    0.01
#
# TEST CONFIGURATIONS
# ncnf
    0
# nvcnf
#   n    l    f
    </PP_INPUTFILE>
  </PP_INFO>
  <!--                               -->
  <!-- END OF HUMAN READABLE SECTION -->
  <!--                               -->
    <PP_HEADER
       generated="Generated using ONCVPSP code by D. R. Hamann"
       author="anonymous"
       date="150703"
       comment=""
       element="Re"
       pseudo_type="NC"
       relativistic="full"
       is_ultrasoft="F"
       is_paw="F"
       is_coulomb="F"
       has_so="T"
       has_wfc="F"
       has_gipaw="F"
       core_correction="F"
       functional="PBE"
       z_valence="   15.00"
       total_psenergy="  -7.96155350760E+01"
       rho_cutoff="   6.01000000000E+00"
       l_max="3"
       l_local="-1"
       mesh_size="   602"
       number_of_wfc="0"
       number_of_proj="14"/>
 <PP_MESH>
   <PP_R type="real"  size=" 602" columns="8">
    0.0000    0.0100    0.0200    0.0300    0.0400    0.0500    0.0600    0.0700
    0.0800    0.0900    0.1000    0.1100    0.1200    0.1300    0.1400    0.1500
    0.1600    0.1700    0.1800    0.1900    0.2000    0.2100    0.2200    0.2300
    0.2400    0.2500    0.2600    0.2700    0.2800    0.2900    0.3000    0.3100
    0.3200    0.3300    0.3400    0.3500    0.3600    0.3700    0.3800    0.3900
    0.4000    0.4100    0.4200    0.4300    0.4400    0.4500    0.4600    0.4700
    0.4800    0.4900    0.5000    0.5100    0.5200    0.5300    0.5400    0.5500
    0.5600    0.5700    0.5800    0.5900    0.6000    0.6100    0.6200    0.6300
    0.6400    0.6500    0.6600    0.6700    0.6800    0.6900    0.7000    0.7100
    0.7200    0.7300    0.7400    0.7500    0.7600    0.7700    0.7800    0.7900
    0.8000    0.8100    0.8200    0.8300    0.8400    0.8500    0.8600    0.8700
    0.8800    0.8900    0.9000    0.9100    0.9200    0.9300    0.9400    0.9500
    0.9600    0.9700    0.9800    0.9900    1.0000    1.0100    1.0200    1.0300
    1.0400    1.0500    1.0600    1.0700    1.0800    1.0900    1.1000    1.1100
    1.1200    1.1300    1.1400    1.1500    1.1600    1.1700    1.1800    1.1900
    1.2000    1.2100    1.2200    1.2300    1.2400    1.2500    1.2600    1.2700
    1.2800    1.2900    1.3000    1.3100    1.3200    1.3300    1.3400    1.3500
    1.3600    1.3700    1.3800    1.3900    1.4000    1.4100    1.4200    1.4300
    1.4400    1.4500    1.4600    1.4700    1.4800    1.4900    1.5000    1.5100
    1.5200    1.5300    1.5400    1.5500    1.5600    1.5700    1.5800    1.5900
    1.6000    1.6100    1.6200    1.6300    1.6400    1.6500    1.6600    1.6700
    1.6800    1.6900    1.7000    1.7100    1.7200    1.7300    1.7400    1.7500
    1.7600    1.7700    1.7800    1.7900    1.8000    1.8100    1.8200    1.8300
    1.8400    1.8500    1.8600    1.8700    1.8800    1.8900    1.9000    1.9100
    1.9200    1.9300    1.9400    1.9500    1.9600    1.9700    1.9800    1.9900
    2.0000    2.0100    2.0200    2.0300    2.0400    2.0500    2.0600    2.0700
    2.0800    2.0900    2.1000    2.1100    2.1200    2.1300    2.1400    2.1500
    2.1600    2.1700    2.1800    2.1900    2.2000    2.2100    2.2200    2.2300
    2.2400    2.2500    2.2600    2.2700    2.2800    2.2900    2.3000    2.3100
    2.3200    2.3300    2.3400    2.3500    2.3600    2.3700    2.3800    2.3900
    2.4000    2.4100    2.4200    2.4300    2.4400    2.4500    2.4600    2.4700
    2.4800    2.4900    2.5000    2.5100    2.5200    2.5300    2.5400    2.5500
    2.5600    2.5700    2.5800    2.5900    2.6000    2.6100    2.6200    2.6300
    2.6400    2.6500    2.6600    2.6700    2.6800    2.6900    2.7000    2.7100
    2.7200    2.7300    2.7400    2.7500    2.7600    2.7700    2.7800    2.7900
    2.8000    2.8100    2.8200    2.8300    2.8400    2.8500    2.8600    2.8700
    2.8800    2.8900    2.9000    2.9100    2.9200    2.9300    2.9400    2.9500
    2.9600    2.9700    2.9800    2.9900    3.0000    3.0100    3.0200    3.0300
    3.0400    3.0500    3.0600    3.0700    3.0800    3.0900    3.1000    3.1100
    3.1200    3.1300    3.1400    3.1500    3.1600    3.1700    3.1800    3.1900
    3.2000    3.2100    3.2200    3.2300    3.2400    3.2500    3.2600    3.2700
    3.2800    3.2900    3.3000    3.3100    3.3200    3.3300    3.3400    3.3500
    3.3600    3.3700    3.3800    3.3900    3.4000    3.4100    3.4200    3.4300
    3.4400    3.4500    3.4600    3.4700    3.4800    3.4900    3.5000    3.5100
    3.5200    3.5300    3.5400    3.5500    3.5600    3.5700    3.5800    3.5900
    3.6000    3.6100    3.6200    3.6300    3.6400    3.6500    3.6600    3.6700
    3.6800    3.6900    3.7000    3.7100    3.7200    3.7300    3.7400    3.7500
    3.7600    3.7700    3.7800    3.7900    3.8000    3.8100    3.8200    3.8300
    3.8400    3.8500    3.8600    3.8700    3.8800    3.8900    3.9000    3.9100
    3.9200    3.9300    3.9400    3.9500    3.9600    3.9700    3.9800    3.9900
    4.0000    4.0100    4.0200    4.0300    4.0400    4.0500    4.0600    4.0700
    4.0800    4.0900    4.1000    4.1100    4.1200    4.1300    4.1400    4.1500
    4.1600    4.1700    4.1800    4.1900    4.2000    4.2100    4.2200    4.2300
    4.2400    4.2500    4.2600    4.2700    4.2800    4.2900    4.3000    4.3100
    4.3200    4.3300    4.3400    4.3500    4.3600    4.3700    4.3800    4.3900
    4.4000    4.4100    4.4200    4.4300    4.4400    4.4500    4.4600    4.4700
    4.4800    4.4900    4.5000    4.5100    4.5200    4.5300    4.5400    4.5500
    4.5600    4.5700    4.5800    4.5900    4.6000    4.6100    4.6200    4.6300
    4.6400    4.6500    4.6600    4.6700    4.6800    4.6900    4.7000    4.7100
    4.7200    4.7300    4.7400    4.7500    4.7600    4.7700    4.7800    4.7900
    4.8000    4.8100    4.8200    4.8300    4.8400    4.8500    4.8600    4.8700
    4.8800    4.8900    4.9000    4.9100    4.9200    4.9300    4.9400    4.9500
    4.9600    4.9700    4.9800    4.9900    5.0000    5.0100    5.0200    5.0300
    5.0400    5.0500    5.0600    5.0700    5.0800    5.0900    5.1000    5.1100
    5.1200    5.1300    5.1400    5.1500    5.1600    5.1700    5.1800    5.1900
    5.2000    5.2100    5.2200    5.2300    5.2400    5.2500    5.2600    5.2700
    5.2800    5.2900    5.3000    5.3100    5.3200    5.3300    5.3400    5.3500
    5.3600    5.3700    5.3800    5.3900    5.4000    5.4100    5.4200    5.4300
    5.4400    5.4500    5.4600    5.4700    5.4800    5.4900    5.5000    5.5100
    5.5200    5.5300    5.5400    5.5500    5.5600    5.5700    5.5800    5.5900
    5.6000    5.6100    5.6200    5.6300    5.6400    5.6500    5.6600    5.6700
    5.6800    5.6900    5.7000    5.7100    5.7200    5.7300    5.7400    5.7500
    5.7600    5.7700    5.7800    5.7900    5.8000    5.8100    5.8200    5.8300
    5.8400    5.8500    5.8600    5.8700    5.8800    5.8900    5.9000    5.9100
    5.9200    5.9300    5.9400    5.9500    5.9600    5.9700    5.9800    5.9900
    6.0000    6.0100
   </PP_R>
   <PP_RAB type="real"  size=" 602" columns="8">
    0.0100    0.0100    0.0100    0.0100    0.0100    0.0100    0.0100    0.0100
    0.0100    0.0100    0.0100    0.0100    0.0100    0.0100    0.0100    0.0100
    0.0100    0.0100    0.0100    0.0100    0.0100    0.0100    0.0100    0.0100
    0.0100    0.0100    0.0100    0.0100    0.0100    0.0100    0.0100    0.0100
    0.0100    0.0100    0.0100    0.0100    0.0100    0.0100    0.0100    0.0100
    0.0100    0.0100    0.0100    0.0100    0.0100    0.0100    0.0100    0.0100
    0.0100    0.0100    0.0100    0.0100    0.0100    0.0100    0.0100    0.0100
    0.0100    0.0100    0.0100    0.0100    0.0100    0.0100    0.0100    0.0100
    0.0100    0.0100    0.0100    0.0100    0.0100    0.0100    0.0100    0.0100
    0.0100    0.0100    0.0100    0.0100    0.0100    0.0100    0.0100    0.0100
    0.0100    0.0100    0.0100    0.0100    0.0100    0.0100    0.0100    0.0100
    0.0100    0.0100    0.0100    0.0100    0.0100    0.0100    0.0100    0.0100
    0.0100    0.0100    0.0100    0.0100    0.0100    0.0100    0.0100    0.0100
    0.0100    0.0100    0.0100    0.0100    0.0100    0.0100    0.0100    0.0100
    0.0100    0.0100    0.0100    0.0100    0.0100    0.0100    0.0100    0.0100
    0.0100    0.0100    0.0100    0.0100    0.0100    0.0100    0.0100    0.0100
    0.0100    0.0100    0.0100    0.0100    0.0100    0.0100    0.0100    0.0100
    0.0100    0.0100    0.0100    0.0100    0.0100    0.0100    0.0100    0.0100
    0.0100    0.0100    0.0100    0.0100    0.0100    0.0100    0.0100    0.0100
    0.0100    0.0100    0.0100    0.0100    0.0100    0.0100    0.0100    0.0100
    0.0100    0.0100    0.0100    0.0100    0.0100    0.0100    0.0100    0.0100
    0.0100    0.0100    0.0100    0.0100    0.0100    0.0100    0.0100    0.0100
    0.0100    0.0100    0.0100    0.0100    0.0100    0.0100    0.0100    0.0100
    0.0100    0.0100    0.0100    0.0100    0.0100    0.0100    0.0100    0.0100
    0.0100    0.0100    0.0100    0.0100    0.0100    0.0100    0.0100    0.0100
    0.0100    0.0100    0.0100    0.0100    0.0100    0.0100    0.0100    0.0100
    0.0100    0.0100    0.0100    0.0100    0.0100    0.0100    0.0100    0.0100
    0.0100    0.0100    0.0100    0.0100    0.0100    0.0100    0.0100    0.0100
    0.0100    0.0100    0.0100    0.0100    0.0100    0.0100    0.0100    0.0100
    0.0100    0.0100    0.0100    0.0100    0.0100    0.0100    0.0100    0.0100
    0.0100    0.0100    0.0100    0.0100    0.0100    0.0100    0.0100    0.0100
    0.0100    0.0100    0.0100    0.0100    0.0100    0.0100    0.0100    0.0100
    0.0100    0.0100    0.0100    0.0100    0.0100    0.0100    0.0100    0.0100
    0.0100    0.0100    0.0100    0.0100    0.0100    0.0100    0.0100    0.0100
    0.0100    0.0100    0.0100    0.0100    0.0100    0.0100    0.0100    0.0100
    0.0100    0.0100    0.0100    0.0100    0.0100    0.0100    0.0100    0.0100
    0.0100    0.0100    0.0100    0.0100    0.0100    0.0100    0.0100    0.0100
    0.0100    0.0100    0.0100    0.0100    0.0100    0.0100    0.0100    0.0100
    0.0100    0.0100    0.0100    0.0100    0.0100    0.0100    0.0100    0.0100
    0.0100    0.0100    0.0100    0.0100    0.0100    0.0100    0.0100    0.0100
    0.0100    0.0100    0.0100    0.0100    0.0100    0.0100    0.0100    0.0100
    0.0100    0.0100    0.0100    0.0100    0.0100    0.0100    0.0100    0.0100
    0.0100    0.0100    0.0100    0.0100    0.0100    0.0100    0.0100    0.0100
    0.0100    0.0100    0.0100    0.0100    0.0100    0.0100    0.0100    0.0100
    0.0100    0.0100    0.0100    0.0100    0.0100    0.0100    0.0100    0.0100
    0.0100    0.0100    0.0100    0.0100    0.0100    0.0100    0.0100    0.0100
    0.0100    0.0100    0.0100    0.0100    0.0100    0.0100    0.0100    0.0100
    0.0100    0.0100    0.0100    0.0100    0.0100    0.0100    0.0100    0.0100
    0.0100    0.0100    0.0100    0.0100    0.0100    0.0100    0.0100    0.0100
    0.0100    0.0100    0.0100    0.0100    0.0100    0.0100    0.0100    0.0100
    0.0100    0.0100    0.0100    0.0100    0.0100    0.0100    0.0100    0.0100
    0.0100    0.0100    0.0100    0.0100    0.0100    0.0100    0.0100    0.0100
    0.0100    0.0100    0.0100    0.0100    0.0100    0.0100    0.0100    0.0100
    0.0100    0.0100    0.0100    0.0100    0.0100    0.0100    0.0100    0.0100
    0.0100    0.0100    0.0100    0.0100    0.0100    0.0100    0.0100    0.0100
    0.0100    0.0100    0.0100    0.0100    0.0100    0.0100    0.0100    0.0100
    0.0100    0.0100    0.0100    0.0100    0.0100    0.0100    0.0100    0.0100
    0.0100    0.0100    0.0100    0.0100    0.0100    0.0100    0.0100    0.0100
    0.0100    0.0100    0.0100    0.0100    0.0100    0.0100    0.0100    0.0100
    0.0100    0.0100    0.0100    0.0100    0.0100    0.0100    0.0100    0.0100
    0.0100    0.0100    0.0100    0.0100    0.0100    0.0100    0.0100    0.0100
    0.0100    0.0100    0.0100    0.0100    0.0100    0.0100    0.0100    0.0100
    0.0100    0.0100    0.0100    0.0100    0.0100    0.0100    0.0100    0.0100
    0.0100    0.0100    0.0100    0.0100    0.0100    0.0100    0.0100    0.0100
    0.0100    0.0100    0.0100    0.0100    0.0100    0.0100    0.0100    0.0100
    0.0100    0.0100    0.0100    0.0100    0.0100    0.0100    0.0100    0.0100
    0.0100    0.0100    0.0100    0.0100    0.0100    0.0100    0.0100    0.0100
    0.0100    0.0100    0.0100    0.0100    0.0100    0.0100    0.0100    0.0100
    0.0100    0.0100    0.0100    0.0100    0.0100    0.0100    0.0100    0.0100
    0.0100    0.0100    0.0100    0.0100    0.0100    0.0100    0.0100    0.0100
    0.0100    0.0100    0.0100    0.0100    0.0100    0.0100    0.0100    0.0100
    0.0100    0.0100    0.0100    0.0100    0.0100    0.0100    0.0100    0.0100
    0.0100    0.0100    0.0100    0.0100    0.0100    0.0100    0.0100    0.0100
    0.0100    0.0100    0.0100    0.0100    0.0100    0.0100    0.0100    0.0100
    0.0100    0.0100    0.0100    0.0100    0.0100    0.0100    0.0100    0.0100
    0.0100    0.0100
   </PP_RAB>
 </PP_MESH>
  <PP_LOCAL type="real"  size=" 602" columns="4">
   -6.0334249203E+01   -6.0341074685E+01   -6.0365179357E+01   -6.0397696230E+01
   -6.0429758317E+01   -6.0452800834E+01   -6.0460200274E+01   -6.0447884429E+01
   -6.0414134717E+01   -6.0358987382E+01   -6.0283568118E+01   -6.0189540386E+01
   -6.0078721677E+01   -5.9952853117E+01   -5.9813483469E+01   -5.9661927890E+01
   -5.9499270311E+01   -5.9326387830E+01   -5.9143983764E+01   -5.8952621510E+01
   -5.8752755385E+01   -5.8544756707E+01   -5.8328934910E+01   -5.8105553999E+01
   -5.7874845016E+01   -5.7637015264E+01   -5.7392255033E+01   -5.7140742361E+01
   -5.6882646405E+01   -5.6618129782E+01   -5.6347350189E+01   -5.6070461536E+01
   -5.5787614745E+01   -5.5498958319E+01   -5.5204638787E+01   -5.4904801042E+01
   -5.4599588623E+01   -5.4289143946E+01   -5.3973608514E+01   -5.3653123088E+01
   -5.3327827833E+01   -5.2997862442E+01   -5.2663366244E+01   -5.2324478275E+01
   -5.1981337348E+01   -5.1634082098E+01   -5.1282851025E+01   -5.0927782533E+01
   -5.0569014965E+01   -5.0206686662E+01   -4.9840936023E+01   -4.9471901597E+01
   -4.9099722205E+01   -4.8724537084E+01   -4.8346486062E+01   -4.7965709807E+01
   -4.7582350031E+01   -4.7196549846E+01   -4.6808453980E+01   -4.6418209233E+01
   -4.6025964669E+01   -4.5631872108E+01   -4.5236086351E+01   -4.4838765469E+01
   -4.4440071214E+01   -4.4040169067E+01   -4.3639228407E+01   -4.3237422781E+01
   -4.2834929714E+01   -4.2431930687E+01   -4.2028610980E+01   -4.1625159550E+01
   -4.1221768569E+01   -4.0818633091E+01   -4.0415950602E+01   -4.0013920520E+01
   -3.9612743653E+01   -3.9212621628E+01   -3.8813756268E+01   -3.8416349000E+01
   -3.8020600250E+01   -3.7626708848E+01   -3.7234871453E+01   -3.6845282002E+01
   -3.6458131183E+01   -3.6073605951E+01   -3.5691889065E+01   -3.5313158668E+01
   -3.4937587899E+01   -3.4565344531E+01   -3.4196590649E+01   -3.3831482345E+01
   -3.3470169441E+01   -3.3112795232E+01   -3.2759496326E+01   -3.2410402339E+01
   -3.2065635474E+01   -3.1725310618E+01   -3.1389535024E+01   -3.1058408107E+01
   -3.0732021249E+01   -3.0410457656E+01   -3.0093792475E+01   -2.9782091275E+01
   -2.9475411135E+01   -2.9173800019E+01   -2.8877296567E+01   -2.8585930669E+01
   -2.8299720941E+01   -2.8018676243E+01   -2.7742795232E+01   -2.7472066615E+01
   -2.7206467876E+01   -2.6945964017E+01   -2.6690509335E+01   -2.6440047489E+01
   -2.6194509097E+01   -2.5953811002E+01   -2.5717858377E+01   -2.5486545944E+01
   -2.5259749253E+01   -2.5037341591E+01   -2.4819194254E+01   -2.4605184837E+01
   -2.4395196020E+01   -2.4189113719E+01   -2.3986828430E+01   -2.3788235238E+01
   -2.3593231592E+01   -2.3401718878E+01   -2.3213602381E+01   -2.3028789091E+01
   -2.2847189857E+01   -2.2668718453E+01   -2.2493289873E+01   -2.2320823365E+01
   -2.2151239696E+01   -2.1984461339E+01   -2.1820414564E+01   -2.1659026140E+01
   -2.1500225948E+01   -2.1343945892E+01   -2.1190118654E+01   -2.1038680813E+01
   -2.0889568925E+01   -2.0742722724E+01   -2.0598083337E+01   -2.0455593133E+01
   -2.0315197749E+01   -2.0176842291E+01   -2.0040476239E+01   -1.9906048513E+01
   -1.9773511233E+01   -1.9642817404E+01   -1.9513921713E+01   -1.9386781086E+01
   -1.9261352731E+01   -1.9137597273E+01   -1.9015474441E+01   -1.8894948224E+01
   -1.8775981047E+01   -1.8658539702E+01   -1.8542589552E+01   -1.8428099717E+01
   -1.8315038361E+01   -1.8203376802E+01   -1.8093085720E+01   -1.7984138485E+01
   -1.7876507994E+01   -1.7770169501E+01   -1.7665097811E+01   -1.7561269865E+01
   -1.7458662077E+01   -1.7357252846E+01   -1.7257019917E+01   -1.7157942878E+01
   -1.7060000542E+01   -1.6963173436E+01   -1.6867441128E+01   -1.6772785116E+01
   -1.6679185655E+01   -1.6586625485E+01   -1.6495086211E+01   -1.6404551589E+01
   -1.6315005116E+01   -1.6226431094E+01   -1.6138814214E+01   -1.6052139245E+01
   -1.5966391830E+01   -1.5881557080E+01   -1.5797621676E+01   -1.5714571385E+01
   -1.5632393339E+01   -1.5551074149E+01   -1.5470601100E+01   -1.5390961657E+01
   -1.5312143235E+01   -1.5234134022E+01   -1.5156921607E+01   -1.5080494618E+01
   -1.5004841236E+01   -1.4929950038E+01   -1.4855809724E+01   -1.4782408859E+01
   -1.4709736611E+01   -1.4637781647E+01   -1.4566533455E+01   -1.4495981302E+01
   -1.4426114589E+01   -1.4356923594E+01   -1.4288397760E+01   -1.4220527945E+01
   -1.4153304641E+01   -1.4086718424E+01   -1.4020760491E+01   -1.3955421430E+01
   -1.3890692810E+01   -1.3826566005E+01   -1.3763032295E+01   -1.3700083794E+01
   -1.3637712031E+01   -1.3575909164E+01   -1.3514667536E+01   -1.3453978969E+01
   -1.3393836392E+01   -1.3334232223E+01   -1.3275159022E+01   -1.3216609967E+01
   -1.3158577716E+01   -1.3101055513E+01   -1.3044036752E+01   -1.2987514355E+01
   -1.2931482167E+01   -1.2875933732E+01   -1.2820862434E+01   -1.2766262455E+01
   -1.2712127539E+01   -1.2658451578E+01   -1.2605228981E+01   -1.2552453725E+01
   -1.2500120161E+01   -1.2448222911E+01   -1.2396756194E+01   -1.2345714760E+01
   -1.2295093446E+01   -1.2244886712E+01   -1.2195089654E+01   -1.2145697325E+01
   -1.2096704425E+01   -1.2048106350E+01   -1.1999898366E+01   -1.1952075412E+01
   -1.1904633140E+01   -1.1857567032E+01   -1.1810872262E+01   -1.1764544696E+01
   -1.1718580033E+01   -1.1672973682E+01   -1.1627721681E+01   -1.1582819950E+01
   -1.1538264129E+01   -1.1494050395E+01   -1.1450174885E+01   -1.1406633473E+01
   -1.1363422439E+01   -1.1320538138E+01   -1.1277976677E+01   -1.1235734406E+01
   -1.1193807900E+01   -1.1152193497E+01   -1.1110887592E+01   -1.1069886972E+01
   -1.1029188212E+01   -1.0988787723E+01   -1.0948682503E+01   -1.0908869316E+01
   -1.0869344707E+01   -1.0830105742E+01   -1.0791149380E+01   -1.0752472398E+01
   -1.0714071809E+01   -1.0675944797E+01   -1.0638088374E+01   -1.0600499483E+01
   -1.0563175521E+01   -1.0526113692E+01   -1.0489311000E+01   -1.0452764903E+01
   -1.0416472780E+01   -1.0380431870E+01   -1.0344639504E+01   -1.0309093288E+01
   -1.0273790680E+01   -1.0238728931E+01   -1.0203905802E+01   -1.0169318889E+01
   -1.0134965671E+01   -1.0100843743E+01   -1.0066950927E+01   -1.0033284918E+01
   -9.9998432161E+00   -9.9666237716E+00   -9.9336244129E+00   -9.9008428767E+00
   -9.8682769039E+00   -9.8359245515E+00   -9.8037837237E+00   -9.7718521856E+00
   -9.7401279690E+00   -9.7086091509E+00   -9.6772937336E+00   -9.6461795245E+00
   -9.6152648072E+00   -9.5845476818E+00   -9.5540261904E+00   -9.5236983571E+00
   -9.4935625146E+00   -9.4636168480E+00   -9.4338594433E+00   -9.4042885249E+00
   -9.3749024631E+00   -9.3456995280E+00   -9.3166778579E+00   -9.2878358466E+00
   -9.2591719068E+00   -9.2306843894E+00   -9.2023714920E+00   -9.1742317483E+00
   -9.1462636193E+00   -9.1184655329E+00   -9.0908357513E+00   -9.0633729211E+00
   -9.0360755576E+00   -9.0089421619E+00   -8.9819710657E+00   -8.9551610034E+00
   -8.9285105502E+00   -8.9020182774E+00   -8.8756825899E+00   -8.8495022865E+00
   -8.8234760085E+00   -8.7976023939E+00   -8.7718799243E+00   -8.7463074418E+00
   -8.7208836585E+00   -8.6956072762E+00   -8.6704768573E+00   -8.6454912660E+00
   -8.6206492910E+00   -8.5959496942E+00   -8.5713911235E+00   -8.5469724455E+00
   -8.5226925295E+00   -8.4985501953E+00   -8.4745441803E+00   -8.4506733356E+00
   -8.4269366143E+00   -8.4033328914E+00   -8.3798609989E+00   -8.3565197551E+00
   -8.3333082001E+00   -8.3102252609E+00   -8.2872698651E+00   -8.2644407955E+00
   -8.2417371681E+00   -8.2191579640E+00   -8.1967021605E+00   -8.1743686407E+00
   -8.1521564502E+00   -8.1300646691E+00   -8.1080923226E+00   -8.0862384007E+00
   -8.0645018636E+00   -8.0428818915E+00   -8.0213775545E+00   -7.9999879233E+00
   -7.9787119576E+00   -7.9575488412E+00   -7.9364977183E+00   -7.9155577028E+00
   -7.8947278684E+00   -7.8740072815E+00   -7.8533951955E+00   -7.8328907654E+00
   -7.8124931462E+00   -7.7922013951E+00   -7.7720147556E+00   -7.7519324594E+00
   -7.7319537011E+00   -7.7120776592E+00   -7.6923034332E+00   -7.6726303695E+00
   -7.6530576999E+00   -7.6335846564E+00   -7.6142104121E+00   -7.5949342021E+00
   -7.5757553651E+00   -7.5566731688E+00   -7.5376868810E+00   -7.5187956781E+00
   -7.4999989084E+00   -7.4812959086E+00   -7.4626859804E+00   -7.4441684257E+00
   -7.4257424318E+00   -7.4074074389E+00   -7.3891627875E+00   -7.3710078122E+00
   -7.3529418334E+00   -7.3349640974E+00   -7.3170740743E+00   -7.2992711292E+00
   -7.2815546277E+00   -7.2639239091E+00   -7.2463782795E+00   -7.2289172248E+00
   -7.2115401398E+00   -7.1942464194E+00   -7.1770354279E+00   -7.1599065138E+00
   -7.1428591840E+00   -7.1258928616E+00   -7.1090069696E+00   -7.0922009027E+00
   -7.0754740352E+00   -7.0588259004E+00   -7.0422559482E+00   -7.0257636285E+00
   -7.0093483716E+00   -6.9930095622E+00   -6.9767467647E+00   -6.9605594547E+00
   -6.9444471078E+00   -6.9284091946E+00   -6.9124450961E+00   -6.8965544122E+00
   -6.8807366429E+00   -6.8649912882E+00   -6.8493178479E+00   -6.8337157343E+00
   -6.8181845384E+00   -6.8027237993E+00   -6.7873330405E+00   -6.7720117850E+00
   -6.7567594957E+00   -6.7415757268E+00   -6.7264600659E+00   -6.7114120584E+00
   -6.6964312497E+00   -6.6815171580E+00   -6.6666692891E+00   -6.6518872816E+00
   -6.6371707024E+00   -6.6225191180E+00   -6.6079320949E+00   -6.5934091146E+00
   -6.5789498350E+00   -6.5645538543E+00   -6.5502207591E+00   -6.5359501362E+00
   -6.5217415308E+00   -6.5075945256E+00   -6.4935087803E+00   -6.4794839009E+00
   -6.4655194935E+00   -6.4516151642E+00   -6.4377704345E+00   -6.4239850038E+00
   -6.4102585042E+00   -6.3965905598E+00   -6.3829807951E+00   -6.3694288034E+00
   -6.3559341859E+00   -6.3424966442E+00   -6.3291158203E+00   -6.3157913560E+00
   -6.3025228932E+00   -6.2893100124E+00   -6.2761524004E+00   -6.2630497434E+00
   -6.2500016998E+00   -6.2370079282E+00   -6.2240680872E+00   -6.2111817520E+00
   -6.1983486776E+00   -6.1855685404E+00   -6.1728410150E+00   -6.1601657757E+00
   -6.1475424806E+00   -6.1349707555E+00   -6.1224503575E+00   -6.1099809765E+00
   -6.0975623019E+00   -6.0851940234E+00   -6.0728758025E+00   -6.0606073068E+00
   -6.0483882951E+00   -6.0362184715E+00   -6.0240975399E+00   -6.0120252045E+00
   -6.0000011356E+00   -5.9880250292E+00   -5.9760966503E+00   -5.9642157168E+00
   -5.9523819466E+00   -5.9405950575E+00   -5.9288547341E+00   -5.9171606869E+00
   -5.9055126928E+00   -5.8939104828E+00   -5.8823537877E+00   -5.8708423387E+00
   -5.8593758394E+00   -5.8479540025E+00   -5.8365766213E+00   -5.8252434393E+00
   -5.8139542001E+00   -5.8027086472E+00   -5.7915065079E+00   -5.7803474855E+00
   -5.7692313941E+00   -5.7581579893E+00   -5.7471270266E+00   -5.7361382614E+00
   -5.7251914492E+00   -5.7142862731E+00   -5.7034225720E+00   -5.6926001129E+00
   -5.6818186626E+00   -5.6710779880E+00   -5.6603778559E+00   -5.6497179824E+00
   -5.6390981717E+00   -5.6285182226E+00   -5.6179779126E+00   -5.6074770197E+00
   -5.5970153214E+00   -5.5865925711E+00   -5.5762085287E+00   -5.5658630278E+00
   -5.5555558567E+00   -5.5452868034E+00   -5.5350556559E+00   -5.5248622024E+00
   -5.5147061694E+00   -5.5045874088E+00   -5.4945057252E+00   -5.4844609163E+00
   -5.4744527801E+00   -5.4644811147E+00   -5.4545456916E+00   -5.4446462980E+00
   -5.4347827818E+00   -5.4249549505E+00   -5.4151626114E+00   -5.4054055719E+00
   -5.3956836393E+00   -5.3859965694E+00   -5.3763442147E+00   -5.3667264050E+00
   -5.3571429566E+00   -5.3475936859E+00   -5.3380784092E+00   -5.3285969352E+00
   -5.3191490332E+00   -5.3097345837E+00   -5.3003534117E+00   -5.2910053418E+00
   -5.2816901992E+00   -5.2724078087E+00   -5.2631579723E+00   -5.2539405012E+00
   -5.2447552679E+00   -5.2356021054E+00   -5.2264808468E+00   -5.2173913251E+00
   -5.2083333736E+00   -5.1993067927E+00   -5.1903114234E+00   -5.1813471350E+00
   -5.1724137683E+00   -5.1635111644E+00   -5.1546391639E+00   -5.1457976077E+00
   -5.1369863003E+00   -5.1282051002E+00   -5.1194538786E+00   -5.1107324840E+00
   -5.1020407646E+00   -5.0933785686E+00   -5.0847457442E+00   -5.0761421042E+00
   -5.0675675140E+00   -5.0590218515E+00   -5.0505049720E+00   -5.0420167308E+00
   -5.0335569833E+00   -5.0251255848E+00   -5.0167223606E+00   -5.0083471727E+00
   -4.9999999099E+00   -4.9916804343E+00
  </PP_LOCAL>
 <PP_NONLOCAL>
   <PP_BETA.1
       type="real"
       size=" 602"
       columns="4"
       index="1"
       angular_momentum="0"
       cutoff_radius_index=" 266"
       cutoff_radius="    2.6500000000E+00" >
    0.0000000000E+00    1.0518583198E-02    2.1044185781E-02    3.1583357182E-02
    4.2141711180E-02    5.2723468686E-02    6.3331013184E-02    7.3964462911E-02
    8.4621263765E-02    9.5295806760E-02    1.0597907373E-01    1.1665831473E-01
    1.2731676049E-01    1.3793337278E-01    1.4848263575E-01    1.5893439037E-01
    1.6925371460E-01    1.7940085067E-01    1.8933118153E-01    1.9899525727E-01
    2.0833887250E-01    2.1730319521E-01    2.2582494708E-01    2.3383663499E-01
    2.4126683280E-01    2.4804051357E-01    2.5407942744E-01    2.5930252865E-01
    2.6362644398E-01    2.6696598321E-01    2.6923468816E-01    2.7034541607E-01
    2.7021095206E-01    2.6874465919E-01    2.6586113241E-01    2.6147689257E-01
    2.5551107309E-01    2.4788614211E-01    2.3852859496E-01    2.2736966625E-01
    2.1434604664E-01    1.9940055377E-01    1.8248280905E-01    1.6354988518E-01
    1.4256692453E-01    1.1950772325E-01    9.4355275336E-02    6.7102258670E-02
    3.7751516400E-02    6.3164376523E-03   -2.7178712610E-02   -6.2698549252E-02
   -1.0019626036E-01   -1.3961356055E-01   -1.8088062280E-01   -2.2391598214E-01
   -2.6862678645E-01   -3.1490876655E-01   -3.6264666733E-01   -4.1171439286E-01