<UPF version="2.0.1">
  <PP_INFO>

 W_ONCV_PBE_FR-1.0.upf

 This pseudopotential file has been produced using the code
 ONCVPSP  (Optimized Norm-Conservinng Vanderbilt PSeudopotential)
 fully-relativistic version 2.1.1, 03/26/2014 by D. R. Hamann
 The code is available through a link at URL www.mat-simresearch.com.
 Documentation with the package provides a full description of the
 input data below.

 While it is not required under the terms of the GNU GPL, it is
 suggested that you cite D. R. Hamann, Phys. Rev. B 88, 085117 (2013)
 in any publication using these pseudopotentials.

 -----

 This pseudopotential was produced with the SG15 1.0 and/or 1.1
 parameter sets, the Schlipf-Gygi norm-conserving pseudopotential
 library. For details of the construction and testing of the
 pseudopotential please refer to:

 M. Schlipf, F. Gygi, Comp. Phys. Comm. 196, 36 (2015)
 http://dx.doi.org/10.1016/j.cpc.2015.05.011

 The above authors kindly ask that you include this reference in all
 publications associated to this pseudopotential.

 Please note this fully-relativistic version does not employ the
 above self-consistent procedure at the fully-relativistic level.

 -----

 This pseudopotential was produced by Peter Scherpelz for the purpose
 of performing GW calculations with spin-orbit-coupling. Please see
 the publication:

 P. Scherpelz, M. Govoni, I. Hamada, G. Galli; J. Chem. Theory Comput. (2016)
 http://dx.doi.org/10.1021/acs.jctc.6b00114

 If you use these pseudopotentials in your work, we also kindly ask
 that you cite the above publication.

 -----

 This work is licensed under the Creative Commons Attribution-ShareAlike 
 4.0 International License. To view a copy of this license, visit 
 http://creativecommons.org/licenses/by-sa/4.0/ or send a letter to 
 Creative Commons, PO Box 1866, Mountain View, CA 94042, USA.

 The SG15 library is Copyright 2015 The Regents of the University of
 California.  Further modifications of these files are Copyright 2016
 Peter Scherpelz.

    <PP_INPUTFILE>
# ATOM AND REFERENCE CONFIGURATION
# atsym  z    nc    nv    iexc   psfile
  W 74.00     9     5     4      upf
#
#   n    l    f        energy (Ha)
    1    0    2.00
    2    0    2.00
    2    1    6.00
    3    0    2.00
    3    1    6.00
    3    2   10.00
    4    0    2.00
    4    1    6.00
    4    2   10.00
    4    3   14.00
    5    0    2.00
    5    1    6.00
    6    0    2.00
    5    2    4.00
#
# PSEUDOPOTENTIAL AND OPTIMIZATION
# lmax
    3
#
#   l,   rc,     ep,   ncon, nbas, qcut
    0    2.15   -2.90    5    8    7.76
    1    2.20   -1.49    5    8    7.39
    2    1.90   -0.15    5    8    8.13
    3    3.03   -1.18    5    8    7.16
#
# LOCAL POTENTIAL
# lloc, lpopt,  rc(5),   dvloc0
    4    5      1.65       0.00
#
# VANDERBILT-KLEINMAN-BYLANDER PROJECTORs
# l, nproj, debl
    0    2    2.6890
    1    2    1.4411
    2    2    1.0274
    3    2    1.2818
#
# MODEL CORE CHARGE
# icmod, fcfact
    0    0.00
#
# LOG DERIVATIVE ANALYSIS
# epsh1, epsh2, depsh
   -5.00    3.00    0.02
#
# OUTPUT GRID
# rlmax, drl
    6.00    0.01
#
# TEST CONFIGURATIONS
# ncnf
    0
# nvcnf
#   n    l    f
    </PP_INPUTFILE>
  </PP_INFO>
  <!--                               -->
  <!-- END OF HUMAN READABLE SECTION -->
  <!--                               -->
    <PP_HEADER
       generated="Generated using ONCVPSP code by D. R. Hamann"
       author="anonymous"
       date="150703"
       comment=""
       element="W "
       pseudo_type="NC"
       relativistic="full"
       is_ultrasoft="F"
       is_paw="F"
       is_coulomb="F"
       has_so="T"
       has_wfc="F"
       has_gipaw="F"
       core_correction="F"
       functional="PBE"
       z_valence="   28.00"
       total_psenergy="  -2.71545373395E+02"
       rho_cutoff="   6.01000000000E+00"
       l_max="3"
       l_local="-1"
       mesh_size="   602"
       number_of_wfc="0"
       number_of_proj="14"/>
 <PP_MESH>
   <PP_R type="real"  size=" 602" columns="8">
    0.0000    0.0100    0.0200    0.0300    0.0400    0.0500    0.0600    0.0700
    0.0800    0.0900    0.1000    0.1100    0.1200    0.1300    0.1400    0.1500
    0.1600    0.1700    0.1800    0.1900    0.2000    0.2100    0.2200    0.2300
    0.2400    0.2500    0.2600    0.2700    0.2800    0.2900    0.3000    0.3100
    0.3200    0.3300    0.3400    0.3500    0.3600    0.3700    0.3800    0.3900
    0.4000    0.4100    0.4200    0.4300    0.4400    0.4500    0.4600    0.4700
    0.4800    0.4900    0.5000    0.5100    0.5200    0.5300    0.5400    0.5500
    0.5600    0.5700    0.5800    0.5900    0.6000    0.6100    0.6200    0.6300
    0.6400    0.6500    0.6600    0.6700    0.6800    0.6900    0.7000    0.7100
    0.7200    0.7300    0.7400    0.7500    0.7600    0.7700    0.7800    0.7900
    0.8000    0.8100    0.8200    0.8300    0.8400    0.8500    0.8600    0.8700
    0.8800    0.8900    0.9000    0.9100    0.9200    0.9300    0.9400    0.9500
    0.9600    0.9700    0.9800    0.9900    1.0000    1.0100    1.0200    1.0300
    1.0400    1.0500    1.0600    1.0700    1.0800    1.0900    1.1000    1.1100
    1.1200    1.1300    1.1400    1.1500    1.1600    1.1700    1.1800    1.1900
    1.2000    1.2100    1.2200    1.2300    1.2400    1.2500    1.2600    1.2700
    1.2800    1.2900    1.3000    1.3100    1.3200    1.3300    1.3400    1.3500
    1.3600    1.3700    1.3800    1.3900    1.4000    1.4100    1.4200    1.4300
    1.4400    1.4500    1.4600    1.4700    1.4800    1.4900    1.5000    1.5100
    1.5200    1.5300    1.5400    1.5500    1.5600    1.5700    1.5800    1.5900
    1.6000    1.6100    1.6200    1.6300    1.6400    1.6500    1.6600    1.6700
    1.6800    1.6900    1.7000    1.7100    1.7200    1.7300    1.7400    1.7500
    1.7600    1.7700    1.7800    1.7900    1.8000    1.8100    1.8200    1.8300
    1.8400    1.8500    1.8600    1.8700    1.8800    1.8900    1.9000    1.9100
    1.9200    1.9300    1.9400    1.9500    1.9600    1.9700    1.9800    1.9900
    2.0000    2.0100    2.0200    2.0300    2.0400    2.0500    2.0600    2.0700
    2.0800    2.0900    2.1000    2.1100    2.1200    2.1300    2.1400    2.1500
    2.1600    2.1700    2.1800    2.1900    2.2000    2.2100    2.2200    2.2300
    2.2400    2.2500    2.2600    2.2700    2.2800    2.2900    2.3000    2.3100
    2.3200    2.3300    2.3400    2.3500    2.3600    2.3700    2.3800    2.3900
    2.4000    2.4100    2.4200    2.4300    2.4400    2.4500    2.4600    2.4700
    2.4800    2.4900    2.5000    2.5100    2.5200    2.5300    2.5400    2.5500
    2.5600    2.5700    2.5800    2.5900    2.6000    2.6100    2.6200    2.6300
    2.6400    2.6500    2.6600    2.6700    2.6800    2.6900    2.7000    2.7100
    2.7200    2.7300    2.7400    2.7500    2.7600    2.7700    2.7800    2.7900
    2.8000    2.8100    2.8200    2.8300    2.8400    2.8500    2.8600    2.8700
    2.8800    2.8900    2.9000    2.9100    2.9200    2.9300    2.9400    2.9500
    2.9600    2.9700    2.9800    2.9900    3.0000    3.0100    3.0200    3.0300
    3.0400    3.0500    3.0600    3.0700    3.0800    3.0900    3.1000    3.1100
    3.1200    3.1300    3.1400    3.1500    3.1600    3.1700    3.1800    3.1900
    3.2000    3.2100    3.2200    3.2300    3.2400    3.2500    3.2600    3.2700
    3.2800    3.2900    3.3000    3.3100    3.3200    3.3300    3.3400    3.3500
    3.3600    3.3700    3.3800    3.3900    3.4000    3.4100    3.4200    3.4300
    3.4400    3.4500    3.4600    3.4700    3.4800    3.4900    3.5000    3.5100
    3.5200    3.5300    3.5400    3.5500    3.5600    3.5700    3.5800    3.5900
    3.6000    3.6100    3.6200    3.6300    3.6400    3.6500    3.6600    3.6700
    3.6800    3.6900    3.7000    3.7100    3.7200    3.7300    3.7400    3.7500
    3.7600    3.7700    3.7800    3.7900    3.8000    3.8100    3.8200    3.8300
    3.8400    3.8500    3.8600    3.8700    3.8800    3.8900    3.9000    3.9100
    3.9200    3.9300    3.9400    3.9500    3.9600    3.9700    3.9800    3.9900
    4.0000    4.0100    4.0200    4.0300    4.0400    4.0500    4.0600    4.0700
    4.0800    4.0900    4.1000    4.1100    4.1200    4.1300    4.1400    4.1500
    4.1600    4.1700    4.1800    4.1900    4.2000    4.2100    4.2200    4.2300
    4.2400    4.2500    4.2600    4.2700    4.2800    4.2900    4.3000    4.3100
    4.3200    4.3300    4.3400    4.3500    4.3600    4.3700    4.3800    4.3900
    4.4000    4.4100    4.4200    4.4300    4.4400    4.4500    4.4600    4.4700
    4.4800    4.4900    4.5000    4.5100    4.5200    4.5300    4.5400    4.5500
    4.5600    4.5700    4.5800    4.5900    4.6000    4.6100    4.6200    4.6300
    4.6400    4.6500    4.6600    4.6700    4.6800    4.6900    4.7000    4.7100
    4.7200    4.7300    4.7400    4.7500    4.7600    4.7700    4.7800    4.7900
    4.8000    4.8100    4.8200    4.8300    4.8400    4.8500    4.8600    4.8700
    4.8800    4.8900    4.9000    4.9100    4.9200    4.9300    4.9400    4.9500
    4.9600    4.9700    4.9800    4.9900    5.0000    5.0100    5.0200    5.0300
    5.0400    5.0500    5.0600    5.0700    5.0800    5.0900    5.1000    5.1100
    5.1200    5.1300    5.1400    5.1500    5.1600    5.1700    5.1800    5.1900
    5.2000    5.2100    5.2200    5.2300    5.2400    5.2500    5.2600    5.2700
    5.2800    5.2900    5.3000    5.3100    5.3200    5.3300    5.3400    5.3500
    5.3600    5.3700    5.3800    5.3900    5.4000    5.4100    5.4200    5.4300
    5.4400    5.4500    5.4600    5.4700    5.4800    5.4900    5.5000    5.5100
    5.5200    5.5300    5.5400    5.5500    5.5600    5.5700    5.5800    5.5900
    5.6000    5.6100    5.6200    5.6300    5.6400    5.6500    5.6600    5.6700
    5.6800    5.6900    5.7000    5.7100    5.7200    5.7300    5.7400    5.7500
    5.7600    5.7700    5.7800    5.7900    5.8000    5.8100    5.8200    5.8300
    5.8400    5.8500    5.8600    5.8700    5.8800    5.8900    5.9000    5.9100
    5.9200    5.9300    5.9400    5.9500    5.9600    5.9700    5.9800    5.9900
    6.0000    6.0100
   </PP_R>
   <PP_RAB type="real"  size=" 602" columns="8">
    0.0100    0.0100    0.0100    0.0100    0.0100    0.0100    0.0100    0.0100
    0.0100    0.0100    0.0100    0.0100    0.0100    0.0100    0.0100    0.0100
    0.0100    0.0100    0.0100    0.0100    0.0100    0.0100    0.0100    0.0100
    0.0100    0.0100    0.0100    0.0100    0.0100    0.0100    0.0100    0.0100
    0.0100    0.0100    0.0100    0.0100    0.0100    0.0100    0.0100    0.0100
    0.0100    0.0100    0.0100    0.0100    0.0100    0.0100    0.0100    0.0100
    0.0100    0.0100    0.0100    0.0100    0.0100    0.0100    0.0100    0.0100
    0.0100    0.0100    0.0100    0.0100    0.0100    0.0100    0.0100    0.0100
    0.0100    0.0100    0.0100    0.0100    0.0100    0.0100    0.0100    0.0100
    0.0100    0.0100    0.0100    0.0100    0.0100    0.0100    0.0100    0.0100
    0.0100    0.0100    0.0100    0.0100    0.0100    0.0100    0.0100    0.0100
    0.0100    0.0100    0.0100    0.0100    0.0100    0.0100    0.0100    0.0100
    0.0100    0.0100    0.0100    0.0100    0.0100    0.0100    0.0100    0.0100
    0.0100    0.0100    0.0100    0.0100    0.0100    0.0100    0.0100    0.0100
    0.0100    0.0100    0.0100    0.0100    0.0100    0.0100    0.0100    0.0100
    0.0100    0.0100    0.0100    0.0100    0.0100    0.0100    0.0100    0.0100
    0.0100    0.0100    0.0100    0.0100    0.0100    0.0100    0.0100    0.0100
    0.0100    0.0100    0.0100    0.0100    0.0100    0.0100    0.0100    0.0100
    0.0100    0.0100    0.0100    0.0100    0.0100    0.0100    0.0100    0.0100
    0.0100    0.0100    0.0100    0.0100    0.0100    0.0100    0.0100    0.0100
    0.0100    0.0100    0.0100    0.0100    0.0100    0.0100    0.0100    0.0100
    0.0100    0.0100    0.0100    0.0100    0.0100    0.0100    0.0100    0.0100
    0.0100    0.0100    0.0100    0.0100    0.0100    0.0100    0.0100    0.0100
    0.0100    0.0100    0.0100    0.0100    0.0100    0.0100    0.0100    0.0100
    0.0100    0.0100    0.0100    0.0100    0.0100    0.0100    0.0100    0.0100
    0.0100    0.0100    0.0100    0.0100    0.0100    0.0100    0.0100    0.0100
    0.0100    0.0100    0.0100    0.0100    0.0100    0.0100    0.0100    0.0100
    0.0100    0.0100    0.0100    0.0100    0.0100    0.0100    0.0100    0.0100
    0.0100    0.0100    0.0100    0.0100    0.0100    0.0100    0.0100    0.0100
    0.0100    0.0100    0.0100    0.0100    0.0100    0.0100    0.0100    0.0100
    0.0100    0.0100    0.0100    0.0100    0.0100    0.0100    0.0100    0.0100
    0.0100    0.0100    0.0100    0.0100    0.0100    0.0100    0.0100    0.0100
    0.0100    0.0100    0.0100    0.0100    0.0100    0.0100    0.0100    0.0100
    0.0100    0.0100    0.0100    0.0100    0.0100    0.0100    0.0100    0.0100
    0.0100    0.0100    0.0100    0.0100    0.0100    0.0100    0.0100    0.0100
    0.0100    0.0100    0.0100    0.0100    0.0100    0.0100    0.0100    0.0100
    0.0100    0.0100    0.0100    0.0100    0.0100    0.0100    0.0100    0.0100
    0.0100    0.0100    0.0100    0.0100    0.0100    0.0100    0.0100    0.0100
    0.0100    0.0100    0.0100    0.0100    0.0100    0.0100    0.0100    0.0100
    0.0100    0.0100    0.0100    0.0100    0.0100    0.0100    0.0100    0.0100
    0.0100    0.0100    0.0100    0.0100    0.0100    0.0100    0.0100    0.0100
    0.0100    0.0100    0.0100    0.0100    0.0100    0.0100    0.0100    0.0100
    0.0100    0.0100    0.0100    0.0100    0.0100    0.0100    0.0100    0.0100
    0.0100    0.0100    0.0100    0.0100    0.0100    0.0100    0.0100    0.0100
    0.0100    0.0100    0.0100    0.0100    0.0100    0.0100    0.0100    0.0100
    0.0100    0.0100    0.0100    0.0100    0.0100    0.0100    0.0100    0.0100
    0.0100    0.0100    0.0100    0.0100    0.0100    0.0100    0.0100    0.0100
    0.0100    0.0100    0.0100    0.0100    0.0100    0.0100    0.0100    0.0100
    0.0100    0.0100    0.0100    0.0100    0.0100    0.0100    0.0100    0.0100
    0.0100    0.0100    0.0100    0.0100    0.0100    0.0100    0.0100    0.0100
    0.0100    0.0100    0.0100    0.0100    0.0100    0.0100    0.0100    0.0100
    0.0100    0.0100    0.0100    0.0100    0.0100    0.0100    0.0100    0.0100
    0.0100    0.0100    0.0100    0.0100    0.0100    0.0100    0.0100    0.0100
    0.0100    0.0100    0.0100    0.0100    0.0100    0.0100    0.0100    0.0100
    0.0100    0.0100    0.0100    0.0100    0.0100    0.0100    0.0100    0.0100
    0.0100    0.0100    0.0100    0.0100    0.0100    0.0100    0.0100    0.0100
    0.0100    0.0100    0.0100    0.0100    0.0100    0.0100    0.0100    0.0100
    0.0100    0.0100    0.0100    0.0100    0.0100    0.0100    0.0100    0.0100
    0.0100    0.0100    0.0100    0.0100    0.0100    0.0100    0.0100    0.0100
    0.0100    0.0100    0.0100    0.0100    0.0100    0.0100    0.0100    0.0100
    0.0100    0.0100    0.0100    0.0100    0.0100    0.0100    0.0100    0.0100
    0.0100    0.0100    0.0100    0.0100    0.0100    0.0100    0.0100    0.0100
    0.0100    0.0100    0.0100    0.0100    0.0100    0.0100    0.0100    0.0100
    0.0100    0.0100    0.0100    0.0100    0.0100    0.0100    0.0100    0.0100
    0.0100    0.0100    0.0100    0.0100    0.0100    0.0100    0.0100    0.0100
    0.0100    0.0100    0.0100    0.0100    0.0100    0.0100    0.0100    0.0100
    0.0100    0.0100    0.0100    0.0100    0.0100    0.0100    0.0100    0.0100
    0.0100    0.0100    0.0100    0.0100    0.0100    0.0100    0.0100    0.0100
    0.0100    0.0100    0.0100    0.0100    0.0100    0.0100    0.0100    0.0100
    0.0100    0.0100    0.0100    0.0100    0.0100    0.0100    0.0100    0.0100
    0.0100    0.0100    0.0100    0.0100    0.0100    0.0100    0.0100    0.0100
    0.0100    0.0100    0.0100    0.0100    0.0100    0.0100    0.0100    0.0100
    0.0100    0.0100    0.0100    0.0100    0.0100    0.0100    0.0100    0.0100
    0.0100    0.0100    0.0100    0.0100    0.0100    0.0100    0.0100    0.0100
    0.0100    0.0100    0.0100    0.0100    0.0100    0.0100    0.0100    0.0100
    0.0100    0.0100
   </PP_RAB>
 </PP_MESH>
  <PP_LOCAL type="real"  size=" 602" columns="4">
   -6.1508696857E+01   -6.1523056968E+01   -6.1570070202E+01   -6.1636684079E+01
   -6.1709846115E+01   -6.1777676526E+01   -6.1831762461E+01   -6.1867654864E+01
   -6.1884180856E+01   -6.1882335537E+01   -6.1864256168E+01   -6.1832477907E+01
   -6.1789480216E+01   -6.1737456769E+01   -6.1678231284E+01   -6.1613256758E+01
   -6.1543655845E+01   -6.1470276276E+01   -6.1393747254E+01   -6.1314529752E+01
   -6.1232958225E+01   -6.1149273508E+01   -6.1063647789E+01   -6.0976203067E+01
   -6.0887024407E+01   -6.0796169343E+01   -6.0703674439E+01   -6.0609559844E+01
   -6.0513832494E+01   -6.0416488426E+01   -6.0317514517E+01   -6.0216889889E+01
   -6.0114587103E+01   -6.0010573241E+01   -5.9904810942E+01   -5.9797259351E+01
   -5.9687875076E+01   -5.9576613055E+01   -5.9463427405E+01   -5.9348272191E+01
   -5.9231102128E+01   -5.9111873213E+01   -5.8990543278E+01   -5.8867072457E+01
   -5.8741423587E+01   -5.8613562528E+01   -5.8483458411E+01   -5.8351083833E+01
   -5.8216414998E+01   -5.8079431782E+01   -5.7940117771E+01   -5.7798460248E+01
   -5.7654450199E+01   -5.7508082173E+01   -5.7359354236E+01   -5.7208267858E+01
   -5.7054827711E+01   -5.6899041632E+01   -5.6740920319E+01   -5.6580477290E+01
   -5.6417728593E+01   -5.6252692667E+01   -5.6085390158E+01   -5.5915843640E+01
   -5.5744077517E+01   -5.5570117748E+01   -5.5393991632E+01   -5.5215727653E+01
   -5.5035355239E+01   -5.4852904556E+01   -5.4668406306E+01   -5.4481891537E+01
   -5.4293391427E+01   -5.4102937089E+01   -5.3910559376E+01   -5.3716288694E+01
   -5.3520154809E+01   -5.3322186679E+01   -5.3122412252E+01   -5.2920858327E+01
   -5.2717550400E+01   -5.2512512526E+01   -5.2305767206E+01   -5.2097335297E+01
   -5.1887235948E+01   -5.1675486575E+01   -5.1462102872E+01   -5.1247098870E+01
   -5.1030487043E+01   -5.0812278475E+01   -5.0592483079E+01   -5.0371109886E+01
   -5.0148167387E+01   -4.9923663933E+01   -4.9697608200E+01   -4.9470009740E+01
   -4.9240879523E+01   -4.9010230542E+01   -4.8778078423E+01   -4.8544442044E+01
   -4.8309344127E+01   -4.8072811527E+01   -4.7834876483E+01   -4.7595576538E+01
   -4.7354954958E+01   -4.7113061015E+01   -4.6869949889E+01   -4.6625683189E+01
   -4.6380329130E+01   -4.6133961584E+01   -4.5886660057E+01   -4.5638508835E+01
   -4.5389598207E+01   -4.5140022176E+01   -4.4889878337E+01   -4.4639267098E+01
   -4.4388292078E+01   -4.4137058156E+01   -4.3885671334E+01   -4.3634238390E+01
   -4.3382865943E+01   -4.3131659993E+01   -4.2880726051E+01   -4.2630167542E+01
   -4.2380086310E+01   -4.2130582842E+01   -4.1881754368E+01   -4.1633695779E+01
   -4.1386500326E+01   -4.1140257109E+01   -4.0895052691E+01   -4.0650972054E+01
   -4.0408095055E+01   -4.0166499709E+01   -3.9926261711E+01   -3.9687451712E+01
   -3.9450139189E+01   -3.9214389723E+01   -3.8980264990E+01   -3.8747825972E+01
   -3.8517127298E+01   -3.8288222547E+01   -3.8061161708E+01   -3.7835989734E+01
   -3.7612751728E+01   -3.7391484660E+01   -3.7172225595E+01   -3.6955005940E+01
   -3.6739853090E+01   -3.6526792678E+01   -3.6315841824E+01   -3.6107019640E+01
   -3.5900333544E+01   -3.5695792893E+01   -3.5493397514E+01   -3.5293145470E+01
   -3.5095028717E+01   -3.4899033562E+01   -3.4705143762E+01   -3.4513333825E+01
   -3.4323579027E+01   -3.4135842536E+01   -3.3950091015E+01   -3.3766277317E+01
   -3.3584359517E+01   -3.3404282089E+01   -3.3225994105E+01   -3.3049437390E+01
   -3.2874555385E+01   -3.2701292355E+01   -3.2529591059E+01   -3.2359399802E+01
   -3.2190662807E+01   -3.2023334597E+01   -3.1857363330E+01   -3.1692711132E+01
   -3.1529332761E+01   -3.1367198637E+01   -3.1206272640E+01   -3.1046533340E+01
   -3.0887955760E+01   -3.0730525848E+01   -3.0574230837E+01   -3.0419063036E+01
   -3.0265021618E+01   -3.0112104413E+01   -2.9960320688E+01   -2.9809673465E+01
   -2.9660178317E+01   -2.9511844872E+01   -2.9364689800E+01   -2.9218728582E+01
   -2.9073976938E+01   -2.8930451663E+01   -2.8788168409E+01   -2.8647138757E+01
   -2.8507380098E+01   -2.8368894686E+01   -2.8231694683E+01   -2.8095777957E+01
   -2.7961142504E+01   -2.7827785838E+01   -2.7695686787E+01   -2.7564840440E+01
   -2.7435213215E+01   -2.7306782465E+01   -2.7179516898E+01   -2.7053374648E+01
   -2.6928323439E+01   -2.6804315128E+01   -2.6681306483E+01   -2.6559254574E+01
   -2.6438116409E+01   -2.6317843481E+01   -2.6198406086E+01   -2.6079762108E+01
   -2.5961881426E+01   -2.5844746778E+01   -2.5728321699E+01   -2.5612606826E+01
   -2.5497589371E+01   -2.5383258867E+01   -2.5269627941E+01   -2.5156693380E+01
   -2.5044467516E+01   -2.4932965550E+01   -2.4822195875E+01   -2.4712177680E+01
   -2.4602926872E+01   -2.4494459114E+01   -2.4386788282E+01   -2.4279931747E+01
   -2.4173901185E+01   -2.4068705201E+01   -2.3964359530E+01   -2.3860866803E+01
   -2.3758231225E+01   -2.3656464027E+01   -2.3555559399E+01   -2.3455518557E+01
   -2.3356344252E+01   -2.3258027836E+01   -2.3160566456E+01   -2.3063956376E+01
   -2.2968187366E+01   -2.2873253177E+01   -2.2779146033E+01   -2.2685854969E+01
   -2.2593371278E+01   -2.2501685154E+01   -2.2410785482E+01   -2.2320662077E+01
   -2.2231304410E+01   -2.2142701639E+01   -2.2054842951E+01   -2.1967717802E+01
   -2.1881315901E+01   -2.1795626465E+01   -2.1710639217E+01   -2.1626344594E+01
   -2.1542732267E+01   -2.1459792300E+01   -2.1377515920E+01   -2.1295893499E+01
   -2.1214915411E+01   -2.1134573665E+01   -2.1054859430E+01   -2.0975763345E+01
   -2.0897278141E+01   -2.0819395717E+01   -2.0742107153E+01   -2.0665405605E+01
   -2.0589283606E+01   -2.0513733020E+01   -2.0438746979E+01   -2.0364318715E+01
   -2.0290440844E+01   -2.0217106415E+01   -2.0144309308E+01   -2.0072042854E+01
   -2.0000299984E+01   -1.9929075178E+01   -1.9858362284E+01   -1.9788154598E+01
   -1.9718446651E+01   -1.9649232851E+01   -1.9580507163E+01   -1.9512263818E+01
   -1.9444497858E+01   -1.9377203895E+01   -1.9310375923E+01   -1.9244009484E+01
   -1.9178099572E+01   -1.9112640829E+01   -1.9047628372E+01   -1.8983057833E+01
   -1.8918924511E+01   -1.8855223122E+01   -1.8791949834E+01   -1.8729100265E+01
   -1.8666669771E+01   -1.8604653999E+01   -1.8543049159E+01   -1.8481851136E+01
   -1.8421055415E+01   -1.8360658387E+01   -1.8300656249E+01   -1.8241045035E+01
   -1.8181820662E+01   -1.8122979740E+01   -1.8064518569E+01   -1.8006433251E+01
   -1.7948720181E+01   -1.7891376013E+01   -1.7834397213E+01   -1.7777779954E+01
   -1.7721521048E+01   -1.7665617210E+01   -1.7610065067E+01   -1.7554860918E+01
   -1.7500001898E+01   -1.7445484796E+01   -1.7391306330E+01   -1.7337463114E+01
   -1.7283952368E+01   -1.7230771031E+01   -1.7177915923E+01   -1.7125383924E+01
   -1.7073172346E+01   -1.7021278271E+01   -1.6969698633E+01   -1.6918430527E+01
   -1.6867471367E+01   -1.6816818371E+01   -1.6766468597E+01   -1.6716419310E+01
   -1.6666668035E+01   -1.6617212118E+01   -1.6568048752E+01   -1.6519175329E+01
   -1.6470589490E+01   -1.6422288710E+01   -1.6374270321E+01   -1.6326531799E+01
   -1.6279070917E+01   -1.6231885265E+01   -1.6184972328E+01   -1.6138329628E+01
   -1.6091955074E+01   -1.6045846369E+01   -1.6000001159E+01   -1.5954416975E+01
   -1.5909091870E+01   -1.5864023655E+01   -1.5819210137E+01   -1.5774648844E+01
   -1.5730337960E+01   -1.5686275403E+01   -1.5642459083E+01   -1.5598886701E+01
   -1.5555556370E+01   -1.5512466178E+01   -1.5469614132E+01   -1.5426998118E+01
   -1.5384616146E+01   -1.5342466479E+01   -1.5300547218E+01   -1.5258856440E+01
   -1.5217392030E+01   -1.5176152424E+01   -1.5135135813E+01   -1.5094340385E+01
   -1.5053764148E+01   -1.5013405443E+01   -1.4973262632E+01   -1.4933333990E+01
   -1.4893617729E+01   -1.4854111999E+01   -1.4814815358E+01   -1.4775726158E+01
   -1.4736842756E+01   -1.4698163321E+01   -1.4659686372E+01   -1.4621410414E+01
   -1.4583333878E+01   -1.4545455157E+01   -1.4507772520E+01   -1.4470284683E+01
   -1.4432990149E+01   -1.4395887423E+01   -1.4358974877E+01   -1.4322251068E+01
   -1.4285714685E+01   -1.4249364303E+01   -1.4213198496E+01   -1.4177215633E+01
   -1.4141414514E+01   -1.4105793815E+01   -1.4070352176E+01   -1.4035088205E+01
   -1.4000000382E+01   -1.3965087611E+01   -1.3930348595E+01   -1.3895782038E+01
   -1.3861386564E+01   -1.3827160828E+01   -1.3793103742E+01   -1.3759214071E+01
   -1.3725490579E+01   -1.3691931918E+01   -1.3658536880E+01   -1.3625304400E+01
   -1.3592233298E+01   -1.3559322398E+01   -1.3526570388E+01   -1.3493976167E+01
   -1.3461538699E+01   -1.3429256860E+01   -1.3397129528E+01   -1.3365155442E+01
   -1.3333333571E+01   -1.3301662921E+01   -1.3270142422E+01   -1.3238771002E+01
   -1.3207547460E+01   -1.3176470806E+01   -1.3145540098E+01   -1.3114754316E+01
   -1.3084112437E+01   -1.3053613331E+01   -1.3023256017E+01   -1.2993039617E+01
   -1.2962963156E+01   -1.2933025661E+01   -1.2903226079E+01   -1.2873563413E+01
   -1.2844036855E+01   -1.2814645478E+01   -1.2785388352E+01   -1.2756264512E+01
   -1.2727272919E+01   -1.2698412845E+01   -1.2669683405E+01   -1.2641083712E+01
   -1.2612612883E+01   -1.2584269860E+01   -1.2556053953E+01   -1.2527964334E+01
   -1.2500000159E+01   -1.2472160584E+01   -1.2444444654E+01   -1.2416851585E+01
   -1.2389380647E+01   -1.2362031035E+01   -1.2334801947E+01   -1.2307692539E+01
   -1.2280701909E+01   -1.2253829433E+01   -1.2227074344E+01   -1.2200435875E+01
   -1.2173913259E+01   -1.2147505598E+01   -1.2121212238E+01   -1.2095032492E+01
   -1.2068965629E+01   -1.2043010918E+01   -1.2017167589E+01   -1.1991434824E+01
   -1.1965812058E+01   -1.1940298596E+01   -1.1914893738E+01   -1.1889596790E+01
   -1.1864406945E+01   -1.1839323572E+01   -1.1814346070E+01   -1.1789473772E+01
   -1.1764706015E+01   -1.1740042134E+01   -1.1715481305E+01   -1.1691023049E+01
   -1.1666666736E+01   -1.1642411733E+01   -1.1618257404E+01   -1.1594203076E+01
   -1.1570248044E+01   -1.1546391823E+01   -1.1522633809E+01   -1.1498973398E+01
   -1.1475409986E+01   -1.1451942895E+01   -1.1428571522E+01   -1.1405295376E+01
   -1.1382113882E+01   -1.1359026462E+01   -1.1336032541E+01   -1.1313131451E+01
   -1.1290322662E+01   -1.1267605687E+01   -1.1244979976E+01   -1.1222444980E+01
   -1.1200000150E+01   -1.1177644838E+01   -1.1155378559E+01   -1.1133200842E+01
   -1.1111111162E+01   -1.1089108995E+01   -1.1067193819E+01   -1.1045365013E+01
   -1.1023622116E+01   -1.1001964678E+01   -1.0980392201E+01   -1.0958904185E+01
   -1.0937500132E+01   -1.0916179457E+01   -1.0894941700E+01   -1.0873786445E+01
   -1.0852713215E+01   -1.0831721534E+01   -1.0810810927E+01   -1.0789980856E+01
   -1.0769230837E+01   -1.0748560495E+01   -1.0727969377E+01   -1.0707457029E+01
   -1.0687022997E+01   -1.0666666798E+01   -1.0646387905E+01   -1.0626185993E+01
   -1.0606060628E+01   -1.0586011378E+01   -1.0566037811E+01   -1.0546139493E+01
   -1.0526315872E+01   -1.0506566642E+01   -1.0486891403E+01   -1.0467289742E+01
   -1.0447761246E+01   -1.0428305503E+01   -1.0408922030E+01   -1.0389610436E+01
   -1.0370370387E+01   -1.0351201490E+01   -1.0332103351E+01   -1.0313075578E+01
   -1.0294117765E+01   -1.0275229419E+01   -1.0256410278E+01   -1.0237659968E+01
   -1.0218978113E+01   -1.0200364340E+01   -1.0181818272E+01   -1.0163339465E+01
   -1.0144927570E+01   -1.0126582283E+01   -1.0108303247E+01   -1.0090090104E+01
   -1.0071942498E+01   -1.0053860070E+01   -1.0035842348E+01   -1.0017889101E+01
   -9.9999999926E+00   -9.9821746822E+00   -9.9644128290E+00   -9.9467140923E+00
   -9.9290780980E+00   -9.9115044574E+00   -9.8939929310E+00   -9.8765431937E+00
   -9.8591549208E+00   -9.8418277874E+00   -9.8245614685E+00   -9.8073555794E+00
   -9.7902098062E+00   -9.7731238955E+00   -9.7560975374E+00   -9.7391304223E+00
   -9.7222222404E+00   -9.7053726821E+00   -9.6885813618E+00   -9.6718480170E+00
   -9.6551723903E+00   -9.6385541861E+00   -9.6219931093E+00   -9.6054888645E+00
   -9.5890411564E+00   -9.5726496080E+00   -9.5563139867E+00   -9.5400340397E+00
   -9.5238094856E+00   -9.5076400427E+00   -9.4915254294E+00   -9.4754653644E+00
   -9.4594594873E+00   -9.4435075751E+00   -9.4276093888E+00   -9.4117646598E+00
   -9.3959731198E+00   -9.3802345003E+00   -9.3645485329E+00   -9.3489148823E+00
   -9.3333333157E+00   -9.3178036161E+00
  </PP_LOCAL>
 <PP_NONLOCAL>
   <PP_BETA.1
       type="real"
       size=" 602"
       columns="4"
       index="1"
       angular_momentum="0"
       cutoff_radius_index=" 308"
       cutoff_radius="    3.0700000000E+00" >
    0.0000000000E+00    1.5562541332E-02    3.1052250567E-02    4.6396424720E-02
    6.1522619366E-02    7.6358778720E-02    9.0833366676E-02    1.0487549909E-01
    1.1841507756E-01    1.3138292498E-01    1.4371092298E-01    1.5533215159E-01
    1.6618103098E-01    1.7619346569E-01    1.8530699101E-01    1.9346092182E-01
    2.0059650346E-01    2.0665706484E-01    2.1158817324E-01    2.1533779071E-01
    2.1785643181E-01    2.1909732196E-01    2.1901655646E-01    2.1757325893E-01
    2.1472973948E-01    2.1045165127E-01    2.0470814467E-01    1.9747201910E-01
    1.8871987141E-01    1.7843223896E-01    1.6659373820E-01    1.5319319627E-01
    1.3822377672E-01    1.2168309660E-01    1.0357333185E-01    8.3901319824E-02
    6.2678639995E-02    3.9921696085E-02    1.5651773013E-02   -1.0104913179E-02
   -3.7317179945E-02   -6.5948859955E-02   -9.5958799337E-02   -1.2730087144E-01
   -1.5992400862E-01   -1.9377225214E-01   -2.2878482070E-01   -2.6489619728E-01
   -3.0203623651E-01   -3.4013029157E-01   -3.7909935920E-01   -4.1886024335E-01
   -4.5932574942E-01   -5.0040487666E-01   -5.4200305013E-01   -5.8402237000E-01
   -6.2636184592E-01   -6.6891772503E-01   -7.1158372033E-01   -7.5425139985E-01