<UPF version="2.0.1">
  <PP_INFO>

 Zr_ONCV_PBE_FR-1.0.upf

 This pseudopotential file has been produced using the code
 ONCVPSP  (Optimized Norm-Conservinng Vanderbilt PSeudopotential)
 fully-relativistic version 2.1.1, 03/26/2014 by D. R. Hamann
 The code is available through a link at URL www.mat-simresearch.com.
 Documentation with the package provides a full description of the
 input data below.

 While it is not required under the terms of the GNU GPL, it is
 suggested that you cite D. R. Hamann, Phys. Rev. B 88, 085117 (2013)
 in any publication using these pseudopotentials.

 -----

 This pseudopotential was produced with the SG15 1.0 and/or 1.1
 parameter sets, the Schlipf-Gygi norm-conserving pseudopotential
 library. For details of the construction and testing of the
 pseudopotential please refer to:

 M. Schlipf, F. Gygi, Comp. Phys. Comm. 196, 36 (2015)
 http://dx.doi.org/10.1016/j.cpc.2015.05.011

 The above authors kindly ask that you include this reference in all
 publications associated to this pseudopotential.

 Please note this fully-relativistic version does not employ the
 above self-consistent procedure at the fully-relativistic level.

 -----

 This pseudopotential was produced by Peter Scherpelz for the purpose
 of performing GW calculations with spin-orbit-coupling. Please see
 the publication:

 P. Scherpelz, M. Govoni, I. Hamada, G. Galli; J. Chem. Theory Comput. (2016)
 http://dx.doi.org/10.1021/acs.jctc.6b00114

 If you use these pseudopotentials in your work, we also kindly ask
 that you cite the above publication.

 -----

 This work is licensed under the Creative Commons Attribution-ShareAlike 
 4.0 International License. To view a copy of this license, visit 
 http://creativecommons.org/licenses/by-sa/4.0/ or send a letter to 
 Creative Commons, PO Box 1866, Mountain View, CA 94042, USA.

 The SG15 library is Copyright 2015 The Regents of the University of
 California.  Further modifications of these files are Copyright 2016
 Peter Scherpelz.

    <PP_INPUTFILE>
# ATOM AND REFERENCE CONFIGURATION
# atsym  z    nc    nv    iexc   psfile
  Zr 40.00     6     4     4      upf
#
#   n    l    f        energy (Ha)
    1    0    2.00
    2    0    2.00
    2    1    6.00
    3    0    2.00
    3    1    6.00
    3    2   10.00
    4    0    2.00
    4    1    6.00
    5    0    2.00
    4    2    2.00
#
# PSEUDOPOTENTIAL AND OPTIMIZATION
# lmax
    2
#
#   l,   rc,     ep,   ncon, nbas, qcut
    0    2.49   -2.00    5    8    5.49
    1    1.89   -1.17    5    8    7.16
    2    2.19   -0.13    5    8    6.42
#
# LOCAL POTENTIAL
# lloc, lpopt,  rc(5),   dvloc0
    4    5      1.51       0.00
#
# VANDERBILT-KLEINMAN-BYLANDER PROJECTORs
# l, nproj, debl
    0    2    1.8390
    1    2    1.9626
    2    2    1.4585
#
# MODEL CORE CHARGE
# icmod, fcfact
    0    0.00
#
# LOG DERIVATIVE ANALYSIS
# epsh1, epsh2, depsh
   -5.00    3.00    0.02
#
# OUTPUT GRID
# rlmax, drl
    6.00    0.01
#
# TEST CONFIGURATIONS
# ncnf
    0
# nvcnf
#   n    l    f
    </PP_INPUTFILE>
  </PP_INFO>
  <!--                               -->
  <!-- END OF HUMAN READABLE SECTION -->
  <!--                               -->
    <PP_HEADER
       generated="Generated using ONCVPSP code by D. R. Hamann"
       author="anonymous"
       date="150703"
       comment=""
       element="Zr"
       pseudo_type="NC"
       relativistic="full"
       is_ultrasoft="F"
       is_paw="F"
       is_coulomb="F"
       has_so="T"
       has_wfc="F"
       has_gipaw="F"
       core_correction="F"
       functional="PBE"
       z_valence="   12.00"
       total_psenergy="  -4.71716341120E+01"
       rho_cutoff="   6.01000000000E+00"
       l_max="2"
       l_local="-1"
       mesh_size="   602"
       number_of_wfc="0"
       number_of_proj="10"/>
 <PP_MESH>
   <PP_R type="real"  size=" 602" columns="8">
    0.0000    0.0100    0.0200    0.0300    0.0400    0.0500    0.0600    0.0700
    0.0800    0.0900    0.1000    0.1100    0.1200    0.1300    0.1400    0.1500
    0.1600    0.1700    0.1800    0.1900    0.2000    0.2100    0.2200    0.2300
    0.2400    0.2500    0.2600    0.2700    0.2800    0.2900    0.3000    0.3100
    0.3200    0.3300    0.3400    0.3500    0.3600    0.3700    0.3800    0.3900
    0.4000    0.4100    0.4200    0.4300    0.4400    0.4500    0.4600    0.4700
    0.4800    0.4900    0.5000    0.5100    0.5200    0.5300    0.5400    0.5500
    0.5600    0.5700    0.5800    0.5900    0.6000    0.6100    0.6200    0.6300
    0.6400    0.6500    0.6600    0.6700    0.6800    0.6900    0.7000    0.7100
    0.7200    0.7300    0.7400    0.7500    0.7600    0.7700    0.7800    0.7900
    0.8000    0.8100    0.8200    0.8300    0.8400    0.8500    0.8600    0.8700
    0.8800    0.8900    0.9000    0.9100    0.9200    0.9300    0.9400    0.9500
    0.9600    0.9700    0.9800    0.9900    1.0000    1.0100    1.0200    1.0300
    1.0400    1.0500    1.0600    1.0700    1.0800    1.0900    1.1000    1.1100
    1.1200    1.1300    1.1400    1.1500    1.1600    1.1700    1.1800    1.1900
    1.2000    1.2100    1.2200    1.2300    1.2400    1.2500    1.2600    1.2700
    1.2800    1.2900    1.3000    1.3100    1.3200    1.3300    1.3400    1.3500
    1.3600    1.3700    1.3800    1.3900    1.4000    1.4100    1.4200    1.4300
    1.4400    1.4500    1.4600    1.4700    1.4800    1.4900    1.5000    1.5100
    1.5200    1.5300    1.5400    1.5500    1.5600    1.5700    1.5800    1.5900
    1.6000    1.6100    1.6200    1.6300    1.6400    1.6500    1.6600    1.6700
    1.6800    1.6900    1.7000    1.7100    1.7200    1.7300    1.7400    1.7500
    1.7600    1.7700    1.7800    1.7900    1.8000    1.8100    1.8200    1.8300
    1.8400    1.8500    1.8600    1.8700    1.8800    1.8900    1.9000    1.9100
    1.9200    1.9300    1.9400    1.9500    1.9600    1.9700    1.9800    1.9900
    2.0000    2.0100    2.0200    2.0300    2.0400    2.0500    2.0600    2.0700
    2.0800    2.0900    2.1000    2.1100    2.1200    2.1300    2.1400    2.1500
    2.1600    2.1700    2.1800    2.1900    2.2000    2.2100    2.2200    2.2300
    2.2400    2.2500    2.2600    2.2700    2.2800    2.2900    2.3000    2.3100
    2.3200    2.3300    2.3400    2.3500    2.3600    2.3700    2.3800    2.3900
    2.4000    2.4100    2.4200    2.4300    2.4400    2.4500    2.4600    2.4700
    2.4800    2.4900    2.5000    2.5100    2.5200    2.5300    2.5400    2.5500
    2.5600    2.5700    2.5800    2.5900    2.6000    2.6100    2.6200    2.6300
    2.6400    2.6500    2.6600    2.6700    2.6800    2.6900    2.7000    2.7100
    2.7200    2.7300    2.7400    2.7500    2.7600    2.7700    2.7800    2.7900
    2.8000    2.8100    2.8200    2.8300    2.8400    2.8500    2.8600    2.8700
    2.8800    2.8900    2.9000    2.9100    2.9200    2.9300    2.9400    2.9500
    2.9600    2.9700    2.9800    2.9900    3.0000    3.0100    3.0200    3.0300
    3.0400    3.0500    3.0600    3.0700    3.0800    3.0900    3.1000    3.1100
    3.1200    3.1300    3.1400    3.1500    3.1600    3.1700    3.1800    3.1900
    3.2000    3.2100    3.2200    3.2300    3.2400    3.2500    3.2600    3.2700
    3.2800    3.2900    3.3000    3.3100    3.3200    3.3300    3.3400    3.3500
    3.3600    3.3700    3.3800    3.3900    3.4000    3.4100    3.4200    3.4300
    3.4400    3.4500    3.4600    3.4700    3.4800    3.4900    3.5000    3.5100
    3.5200    3.5300    3.5400    3.5500    3.5600    3.5700    3.5800    3.5900
    3.6000    3.6100    3.6200    3.6300    3.6400    3.6500    3.6600    3.6700
    3.6800    3.6900    3.7000    3.7100    3.7200    3.7300    3.7400    3.7500
    3.7600    3.7700    3.7800    3.7900    3.8000    3.8100    3.8200    3.8300
    3.8400    3.8500    3.8600    3.8700    3.8800    3.8900    3.9000    3.9100
    3.9200    3.9300    3.9400    3.9500    3.9600    3.9700    3.9800    3.9900
    4.0000    4.0100    4.0200    4.0300    4.0400    4.0500    4.0600    4.0700
    4.0800    4.0900    4.1000    4.1100    4.1200    4.1300    4.1400    4.1500
    4.1600    4.1700    4.1800    4.1900    4.2000    4.2100    4.2200    4.2300
    4.2400    4.2500    4.2600    4.2700    4.2800    4.2900    4.3000    4.3100
    4.3200    4.3300    4.3400    4.3500    4.3600    4.3700    4.3800    4.3900
    4.4000    4.4100    4.4200    4.4300    4.4400    4.4500    4.4600    4.4700
    4.4800    4.4900    4.5000    4.5100    4.5200    4.5300    4.5400    4.5500
    4.5600    4.5700    4.5800    4.5900    4.6000    4.6100    4.6200    4.6300
    4.6400    4.6500    4.6600    4.6700    4.6800    4.6900    4.7000    4.7100
    4.7200    4.7300    4.7400    4.7500    4.7600    4.7700    4.7800    4.7900
    4.8000    4.8100    4.8200    4.8300    4.8400    4.8500    4.8600    4.8700
    4.8800    4.8900    4.9000    4.9100    4.9200    4.9300    4.9400    4.9500
    4.9600    4.9700    4.9800    4.9900    5.0000    5.0100    5.0200    5.0300
    5.0400    5.0500    5.0600    5.0700    5.0800    5.0900    5.1000    5.1100
    5.1200    5.1300    5.1400    5.1500    5.1600    5.1700    5.1800    5.1900
    5.2000    5.2100    5.2200    5.2300    5.2400    5.2500    5.2600    5.2700
    5.2800    5.2900    5.3000    5.3100    5.3200    5.3300    5.3400    5.3500
    5.3600    5.3700    5.3800    5.3900    5.4000    5.4100    5.4200    5.4300
    5.4400    5.4500    5.4600    5.4700    5.4800    5.4900    5.5000    5.5100
    5.5200    5.5300    5.5400    5.5500    5.5600    5.5700    5.5800    5.5900
    5.6000    5.6100    5.6200    5.6300    5.6400    5.6500    5.6600    5.6700
    5.6800    5.6900    5.7000    5.7100    5.7200    5.7300    5.7400    5.7500
    5.7600    5.7700    5.7800    5.7900    5.8000    5.8100    5.8200    5.8300
    5.8400    5.8500    5.8600    5.8700    5.8800    5.8900    5.9000    5.9100
    5.9200    5.9300    5.9400    5.9500    5.9600    5.9700    5.9800    5.9900
    6.0000    6.0100
   </PP_R>
   <PP_RAB type="real"  size=" 602" columns="8">
    0.0100    0.0100    0.0100    0.0100    0.0100    0.0100    0.0100    0.0100
    0.0100    0.0100    0.0100    0.0100    0.0100    0.0100    0.0100    0.0100
    0.0100    0.0100    0.0100    0.0100    0.0100    0.0100    0.0100    0.0100
    0.0100    0.0100    0.0100    0.0100    0.0100    0.0100    0.0100    0.0100
    0.0100    0.0100    0.0100    0.0100    0.0100    0.0100    0.0100    0.0100
    0.0100    0.0100    0.0100    0.0100    0.0100    0.0100    0.0100    0.0100
    0.0100    0.0100    0.0100    0.0100    0.0100    0.0100    0.0100    0.0100
    0.0100    0.0100    0.0100    0.0100    0.0100    0.0100    0.0100    0.0100
    0.0100    0.0100    0.0100    0.0100    0.0100    0.0100    0.0100    0.0100
    0.0100    0.0100    0.0100    0.0100    0.0100    0.0100    0.0100    0.0100
    0.0100    0.0100    0.0100    0.0100    0.0100    0.0100    0.0100    0.0100
    0.0100    0.0100    0.0100    0.0100    0.0100    0.0100    0.0100    0.0100
    0.0100    0.0100    0.0100    0.0100    0.0100    0.0100    0.0100    0.0100
    0.0100    0.0100    0.0100    0.0100    0.0100    0.0100    0.0100    0.0100
    0.0100    0.0100    0.0100    0.0100    0.0100    0.0100    0.0100    0.0100
    0.0100    0.0100    0.0100    0.0100    0.0100    0.0100    0.0100    0.0100
    0.0100    0.0100    0.0100    0.0100    0.0100    0.0100    0.0100    0.0100
    0.0100    0.0100    0.0100    0.0100    0.0100    0.0100    0.0100    0.0100
    0.0100    0.0100    0.0100    0.0100    0.0100    0.0100    0.0100    0.0100
    0.0100    0.0100    0.0100    0.0100    0.0100    0.0100    0.0100    0.0100
    0.0100    0.0100    0.0100    0.0100    0.0100    0.0100    0.0100    0.0100
    0.0100    0.0100    0.0100    0.0100    0.0100    0.0100    0.0100    0.0100
    0.0100    0.0100    0.0100    0.0100    0.0100    0.0100    0.0100    0.0100
    0.0100    0.0100    0.0100    0.0100    0.0100    0.0100    0.0100    0.0100
    0.0100    0.0100    0.0100    0.0100    0.0100    0.0100    0.0100    0.0100
    0.0100    0.0100    0.0100    0.0100    0.0100    0.0100    0.0100    0.0100
    0.0100    0.0100    0.0100    0.0100    0.0100    0.0100    0.0100    0.0100
    0.0100    0.0100    0.0100    0.0100    0.0100    0.0100    0.0100    0.0100
    0.0100    0.0100    0.0100    0.0100    0.0100    0.0100    0.0100    0.0100
    0.0100    0.0100    0.0100    0.0100    0.0100    0.0100    0.0100    0.0100
    0.0100    0.0100    0.0100    0.0100    0.0100    0.0100    0.0100    0.0100
    0.0100    0.0100    0.0100    0.0100    0.0100    0.0100    0.0100    0.0100
    0.0100    0.0100    0.0100    0.0100    0.0100    0.0100    0.0100    0.0100
    0.0100    0.0100    0.0100    0.0100    0.0100    0.0100    0.0100    0.0100
    0.0100    0.0100    0.0100    0.0100    0.0100    0.0100    0.0100    0.0100
    0.0100    0.0100    0.0100    0.0100    0.0100    0.0100    0.0100    0.0100
    0.0100    0.0100    0.0100    0.0100    0.0100    0.0100    0.0100    0.0100
    0.0100    0.0100    0.0100    0.0100    0.0100    0.0100    0.0100    0.0100
    0.0100    0.0100    0.0100    0.0100    0.0100    0.0100    0.0100    0.0100
    0.0100    0.0100    0.0100    0.0100    0.0100    0.0100    0.0100    0.0100
    0.0100    0.0100    0.0100    0.0100    0.0100    0.0100    0.0100    0.0100
    0.0100    0.0100    0.0100    0.0100    0.0100    0.0100    0.0100    0.0100
    0.0100    0.0100    0.0100    0.0100    0.0100    0.0100    0.0100    0.0100
    0.0100    0.0100    0.0100    0.0100    0.0100    0.0100    0.0100    0.0100
    0.0100    0.0100    0.0100    0.0100    0.0100    0.0100    0.0100    0.0100
    0.0100    0.0100    0.0100    0.0100    0.0100    0.0100    0.0100    0.0100
    0.0100    0.0100    0.0100    0.0100    0.0100    0.0100    0.0100    0.0100
    0.0100    0.0100    0.0100    0.0100    0.0100    0.0100    0.0100    0.0100
    0.0100    0.0100    0.0100    0.0100    0.0100    0.0100    0.0100    0.0100
    0.0100    0.0100    0.0100    0.0100    0.0100    0.0100    0.0100    0.0100
    0.0100    0.0100    0.0100    0.0100    0.0100    0.0100    0.0100    0.0100
    0.0100    0.0100    0.0100    0.0100    0.0100    0.0100    0.0100    0.0100
    0.0100    0.0100    0.0100    0.0100    0.0100    0.0100    0.0100    0.0100
    0.0100    0.0100    0.0100    0.0100    0.0100    0.0100    0.0100    0.0100
    0.0100    0.0100    0.0100    0.0100    0.0100    0.0100    0.0100    0.0100
    0.0100    0.0100    0.0100    0.0100    0.0100    0.0100    0.0100    0.0100
    0.0100    0.0100    0.0100    0.0100    0.0100    0.0100    0.0100    0.0100
    0.0100    0.0100    0.0100    0.0100    0.0100    0.0100    0.0100    0.0100
    0.0100    0.0100    0.0100    0.0100    0.0100    0.0100    0.0100    0.0100
    0.0100    0.0100    0.0100    0.0100    0.0100    0.0100    0.0100    0.0100
    0.0100    0.0100    0.0100    0.0100    0.0100    0.0100    0.0100    0.0100
    0.0100    0.0100    0.0100    0.0100    0.0100    0.0100    0.0100    0.0100
    0.0100    0.0100    0.0100    0.0100    0.0100    0.0100    0.0100    0.0100
    0.0100    0.0100    0.0100    0.0100    0.0100    0.0100    0.0100    0.0100
    0.0100    0.0100    0.0100    0.0100    0.0100    0.0100    0.0100    0.0100
    0.0100    0.0100    0.0100    0.0100    0.0100    0.0100    0.0100    0.0100
    0.0100    0.0100    0.0100    0.0100    0.0100    0.0100    0.0100    0.0100
    0.0100    0.0100    0.0100    0.0100    0.0100    0.0100    0.0100    0.0100
    0.0100    0.0100    0.0100    0.0100    0.0100    0.0100    0.0100    0.0100
    0.0100    0.0100    0.0100    0.0100    0.0100    0.0100    0.0100    0.0100
    0.0100    0.0100    0.0100    0.0100    0.0100    0.0100    0.0100    0.0100
    0.0100    0.0100    0.0100    0.0100    0.0100    0.0100    0.0100    0.0100
    0.0100    0.0100    0.0100    0.0100    0.0100    0.0100    0.0100    0.0100
    0.0100    0.0100    0.0100    0.0100    0.0100    0.0100    0.0100    0.0100
    0.0100    0.0100    0.0100    0.0100    0.0100    0.0100    0.0100    0.0100
    0.0100    0.0100
   </PP_RAB>
 </PP_MESH>
  <PP_LOCAL type="real"  size=" 602" columns="4">
   -3.5214723267E+01   -3.5213446110E+01   -3.5209644812E+01   -3.5203287163E+01
   -3.5194340958E+01   -3.5182763064E+01   -3.5168501234E+01   -3.5151496226E+01
   -3.5131684112E+01   -3.5108998655E+01   -3.5083373621E+01   -3.5054744941E+01
   -3.5023052619E+01   -3.4988242351E+01   -3.4950266802E+01   -3.4909086542E+01
   -3.4864670651E+01   -3.4816997009E+01   -3.4766052327E+01   -3.4711831935E+01
   -3.4654339393E+01   -3.4593585975E+01   -3.4529590037E+01   -3.4462376351E+01
   -3.4391975396E+01   -3.4318422662E+01   -3.4241757971E+01   -3.4162024835E+01
   -3.4079269858E+01   -3.3993542200E+01   -3.3904893083E+01   -3.3813375367E+01
   -3.3719043160E+01   -3.3621951499E+01   -3.3522156059E+01   -3.3419712912E+01
   -3.3314678314E+01   -3.3207108533E+01   -3.3097059691E+01   -3.2984587635E+01
   -3.2869747824E+01   -3.2752595232E+01   -3.2633184259E+01   -3.2511568658E+01
   -3.2387801464E+01   -3.2261934934E+01   -3.2134020490E+01   -3.2004108671E+01
   -3.1872249087E+01   -3.1738490381E+01   -3.1602880187E+01   -3.1465465108E+01
   -3.1326290701E+01   -3.1185401434E+01   -3.1042840706E+01   -3.0898650830E+01
   -3.0752873040E+01   -3.0605547520E+01   -3.0456713410E+01   -3.0306408862E+01
   -3.0154671074E+01   -3.0001536342E+01   -2.9847040161E+01   -2.9691217249E+01
   -2.9534101684E+01   -2.9375726992E+01   -2.9216126233E+01   -2.9055332147E+01
   -2.8893377269E+01   -2.8730294056E+01   -2.8566115033E+01   -2.8400872929E+01
   -2.8234600824E+01   -2.8067332283E+01   -2.7899101506E+01   -2.7729943477E+01
   -2.7559894081E+01   -2.7388990237E+01   -2.7217270014E+01   -2.7044772738E+01
   -2.6871539089E+01   -2.6697611181E+01   -2.6523032629E+01   -2.6347848598E+01
   -2.6172105837E+01   -2.5995852701E+01   -2.5819139141E+01   -2.5642016694E+01
   -2.5464538442E+01   -2.5286758964E+01   -2.5108734263E+01   -2.4930521684E+01
   -2.4752179818E+01   -2.4573768384E+01   -2.4395348114E+01   -2.4216980613E+01
   -2.4038728220E+01   -2.3860653851E+01   -2.3682820880E+01   -2.3505292940E+01
   -2.3328133768E+01   -2.3151407050E+01   -2.2975176258E+01   -2.2799504512E+01
   -2.2624454417E+01   -2.2450087841E+01   -2.2276465838E+01   -2.2103648494E+01
   -2.1931694857E+01   -2.1760662725E+01   -2.1590608410E+01   -2.1421586826E+01
   -2.1253651374E+01   -2.1086853918E+01   -2.0921244188E+01   -2.0756870244E+01
   -2.0593778405E+01   -2.0432012978E+01   -2.0271615875E+01   -2.0112627143E+01
   -1.9955085155E+01   -1.9799025304E+01   -1.9644481038E+01   -1.9491484041E+01
   -1.9340063235E+01   -1.9190245103E+01   -1.9042054487E+01   -1.8895513524E+01
   -1.8750641658E+01   -1.8607456890E+01   -1.8465974288E+01   -1.8326206315E+01
   -1.8188164238E+01   -1.8051855796E+01   -1.7917286680E+01   -1.7784461464E+01
   -1.7653380450E+01   -1.7524043120E+01   -1.7396446462E+01   -1.7270584228E+01
   -1.7146449766E+01   -1.7024032151E+01   -1.6903319463E+01   -1.6784297621E+01
   -1.6666949031E+01   -1.6551256268E+01   -1.6437196863E+01   -1.6324748421E+01
   -1.6213885182E+01   -1.6104579213E+01   -1.5996801406E+01   -1.5890518547E+01
   -1.5785697380E+01   -1.5682303221E+01   -1.5580301758E+01   -1.5479660880E+01
   -1.5380348650E+01   -1.5282334849E+01   -1.5185590107E+01   -1.5090085999E+01
   -1.4995795603E+01   -1.4902692270E+01   -1.4810751354E+01   -1.4719947957E+01
   -1.4630259516E+01   -1.4541662837E+01   -1.4454137219E+01   -1.4367661111E+01
   -1.4282215445E+01   -1.4197780225E+01   -1.4114337784E+01   -1.4031869577E+01
   -1.3950359110E+01   -1.3869789167E+01   -1.3790144209E+01   -1.3711408207E+01
   -1.3633566385E+01   -1.3556603751E+01   -1.3480506128E+01   -1.3405259393E+01
   -1.3330849831E+01   -1.3257264018E+01   -1.3184488606E+01   -1.3112510700E+01
   -1.3041317242E+01   -1.2970895711E+01   -1.2901233292E+01   -1.2832317665E+01
   -1.2764136177E+01   -1.2696676769E+01   -1.2629926923E+01   -1.2563875117E+01
   -1.2498510212E+01   -1.2433820978E+01   -1.2369797347E+01   -1.2306428523E+01
   -1.2243704789E+01   -1.2181615781E+01   -1.2120152008E+01   -1.2059304026E+01
   -1.1999062385E+01   -1.1939418378E+01   -1.1880362673E+01   -1.1821887022E+01
   -1.1763982708E+01   -1.1706641431E+01   -1.1649855223E+01   -1.1593615724E+01
   -1.1537915499E+01   -1.1482746603E+01   -1.1428101588E+01   -1.1373973167E+01
   -1.1320353768E+01   -1.1267236589E+01   -1.1214614390E+01   -1.1162480322E+01
   -1.1110827732E+01   -1.1059649584E+01   -1.1008939676E+01   -1.0958691363E+01
   -1.0908898269E+01   -1.0859554485E+01   -1.0810653588E+01   -1.0762189957E+01
   -1.0714157851E+01   -1.0666551346E+01   -1.0619365173E+01   -1.0572593689E+01
   -1.0526231480E+01   -1.0480273430E+01   -1.0434714059E+01   -1.0389548422E+01
   -1.0344771580E+01   -1.0300378264E+01   -1.0256363931E+01   -1.0212723729E+01
   -1.0169452765E+01   -1.0126546667E+01   -1.0084000751E+01   -1.0041810467E+01
   -9.9999716017E+00   -9.9584796393E+00   -9.9173303352E+00   -9.8765196314E+00
   -9.8360431817E+00   -9.7958970134E+00   -9.7560772323E+00   -9.7165796684E+00
   -9.6774005894E+00   -9.6385362654E+00   -9.5999827335E+00   -9.5617364289E+00
   -9.5237937529E+00   -9.4861508761E+00   -9.4488044123E+00   -9.4117509286E+00
   -9.3749867390E+00   -9.3385086361E+00   -9.3023133842E+00   -9.2663975365E+00
   -9.2307579699E+00   -9.1953915847E+00   -9.1602950727E+00   -9.1254654104E+00
   -9.0908996838E+00   -9.0565947771E+00   -9.0225477306E+00   -8.9887557918E+00
   -8.9552160228E+00   -8.9219255043E+00   -8.8888816516E+00   -8.8560817092E+00
   -8.8235227804E+00   -8.7912024421E+00   -8.7591180846E+00   -8.7272669294E+00
   -8.6956465986E+00   -8.6642546410E+00   -8.6330884566E+00   -8.6021456353E+00
   -8.5714239001E+00   -8.5409208353E+00   -8.5106339808E+00   -8.4805612286E+00
   -8.4507003170E+00   -8.4210488246E+00   -8.3916047053E+00   -8.3623658346E+00
   -8.3333299725E+00   -8.3044949801E+00   -8.2758589102E+00   -8.2474197070E+00
   -8.2191751407E+00   -8.1911234187E+00   -8.1632625846E+00   -8.1355905883E+00
   -8.1081055097E+00   -8.0808055737E+00   -8.0536889117E+00   -8.0267534921E+00
   -7.9999976827E+00   -7.9734197102E+00   -7.9470177259E+00   -7.9207899377E+00
   -7.8947347547E+00   -7.8688504782E+00   -7.8431352824E+00   -7.8175876127E+00
   -7.7922058918E+00   -7.7669884835E+00   -7.7419336463E+00   -7.7170399808E+00
   -7.6923059428E+00   -7.6677299240E+00   -7.6433103726E+00   -7.6190459153E+00
   -7.5949350801E+00   -7.5709762935E+00   -7.5471681690E+00   -7.5235093613E+00
   -7.4999984668E+00   -7.4766339542E+00   -7.4534145767E+00   -7.4303390210E+00
   -7.4074059489E+00   -7.3846138771E+00   -7.3619616739E+00   -7.3394480635E+00
   -7.3170717531E+00   -7.2948313621E+00   -7.2727258015E+00   -7.2507538548E+00
   -7.2289142795E+00   -7.2072057783E+00   -7.1856273075E+00   -7.1641777074E+00
   -7.1428557903E+00   -7.1216603227E+00   -7.1005903103E+00   -7.0796446474E+00
   -7.0588222050E+00   -7.0381217959E+00   -7.0175424783E+00   -6.9970831981E+00
   -6.9767428889E+00   -6.9565203931E+00   -6.9364148245E+00   -6.9164251783E+00
   -6.8965504492E+00   -6.8767895095E+00   -6.8571415158E+00   -6.8376055150E+00
   -6.8181805489E+00   -6.7988655596E+00   -6.7796596944E+00   -6.7605620680E+00
   -6.7415717669E+00   -6.7226878070E+00   -6.7039093120E+00   -6.6852354669E+00
   -6.6666654007E+00   -6.6481982075E+00   -6.6298329743E+00   -6.6115689580E+00
   -6.5934053284E+00   -6.5753412548E+00   -6.5573757959E+00   -6.5395082622E+00
   -6.5217378682E+00   -6.5040638219E+00   -6.4864852646E+00   -6.4690014412E+00
   -6.4516116476E+00   -6.4343151290E+00   -6.4171111143E+00   -6.3999987725E+00
   -6.3829774803E+00   -6.3660465182E+00   -6.3492051663E+00   -6.3324526322E+00
   -6.3157882508E+00   -6.2992113754E+00   -6.2827213197E+00   -6.2663173853E+00
   -6.2499988065E+00   -6.2337650238E+00   -6.2176153831E+00   -6.2015492303E+00
   -6.1855658556E+00   -6.1696646236E+00   -6.1538449625E+00   -6.1381062486E+00
   -6.1224478581E+00   -6.1068690784E+00   -6.0913693852E+00   -6.0759481980E+00
   -6.0606049221E+00   -6.0453389462E+00   -6.0301496124E+00   -6.0150364376E+00
   -5.9999988549E+00   -5.9850362973E+00   -5.9701481577E+00   -5.9553338597E+00
   -5.9405929224E+00   -5.9259248053E+00   -5.9113289679E+00   -5.8968048131E+00
   -5.8823518299E+00   -5.8679695440E+00   -5.8536574401E+00   -5.8394150029E+00
   -5.8252416506E+00   -5.8111369221E+00   -5.7971003547E+00   -5.7831314570E+00
   -5.7692297376E+00   -5.7553946346E+00   -5.7416257227E+00   -5.7279225550E+00
   -5.7142846633E+00   -5.7007115791E+00   -5.6872027645E+00   -5.6737578161E+00
   -5.6603763080E+00   -5.6470577937E+00   -5.6338018266E+00   -5.6206078969E+00
   -5.6074756104E+00   -5.5944045665E+00   -5.5813943394E+00   -5.5684445034E+00
   -5.5555545805E+00   -5.5427241739E+00   -5.5299529124E+00   -5.5172403898E+00
   -5.5045862003E+00   -5.4919899018E+00   -5.4794510835E+00   -5.4669694070E+00
   -5.4545444852E+00   -5.4421759309E+00   -5.4298633417E+00   -5.4176062829E+00
   -5.4054044515E+00   -5.3932574786E+00   -5.3811649951E+00   -5.3691266321E+00
   -5.3571419503E+00   -5.3452106563E+00   -5.3333324077E+00   -5.3215068528E+00
   -5.3097336396E+00   -5.2980123754E+00   -5.2863427196E+00   -5.2747243747E+00
   -5.2631570052E+00   -5.2516402757E+00   -5.2401738438E+00   -5.2287573135E+00
   -5.2173904336E+00   -5.2060728844E+00   -5.1948043459E+00   -5.1835844984E+00
   -5.1724129775E+00   -5.1612894860E+00   -5.1502137495E+00   -5.1391854632E+00
   -5.1282043221E+00   -5.1172700188E+00   -5.1063821817E+00   -5.0955405896E+00
   -5.0847449517E+00   -5.0739949773E+00   -5.0632903757E+00   -5.0526308270E+00
   -5.0420160325E+00   -5.0314457575E+00   -5.0209197248E+00   -5.0104376573E+00
   -4.9999992778E+00   -4.9896042596E+00   -4.9792523638E+00   -4.9689433463E+00
   -4.9586769430E+00   -4.9484528895E+00   -4.9382709218E+00   -4.9281307117E+00
   -4.9180320666E+00   -4.9079747382E+00   -4.8979584745E+00   -4.8879830237E+00
   -4.8780481259E+00   -4.8681534801E+00   -4.8582989041E+00   -4.8484841578E+00
   -4.8387090009E+00   -4.8289731934E+00   -4.8192764810E+00   -4.8096185888E+00
   -4.7999993387E+00   -4.7904185016E+00   -4.7808758486E+00   -4.7713711506E+00
   -4.7619041633E+00   -4.7524746274E+00   -4.7430823725E+00   -4.7337271804E+00
   -4.7244088326E+00   -4.7151271108E+00   -4.7058817847E+00   -4.6966726001E+00
   -4.6874993985E+00   -4.6783619717E+00   -4.6692601115E+00   -4.6601936099E+00
   -4.6511622540E+00   -4.6421657856E+00   -4.6332040615E+00   -4.6242768832E+00
   -4.6153840523E+00   -4.6065253702E+00   -4.5977006386E+00   -4.5889096070E+00
   -4.5801521301E+00   -4.5714280255E+00   -4.5627371039E+00   -4.5540791762E+00
   -4.5454540532E+00   -4.5368615098E+00   -4.5283013757E+00   -4.5197734928E+00
   -4.5112776805E+00   -4.5028137586E+00   -4.4943815466E+00   -4.4859808482E+00
   -4.4776114607E+00   -4.4692732524E+00   -4.4609660514E+00   -4.4526896857E+00
   -4.4444439834E+00   -4.4362287724E+00   -4.4280438335E+00   -4.4198890411E+00
   -4.4117642388E+00   -4.4036692626E+00   -4.3956039486E+00   -4.3875681327E+00
   -4.3795616311E+00   -4.3715842684E+00   -4.3636359223E+00   -4.3557164363E+00
   -4.3478256543E+00   -4.3399634197E+00   -4.3321295763E+00   -4.3243239261E+00
   -4.3165463493E+00   -4.3087967076E+00   -4.3010748519E+00   -4.2933806333E+00
   -4.2857139026E+00   -4.2780745032E+00   -4.2704622511E+00   -4.2628770476E+00
   -4.2553187505E+00   -4.2477872179E+00   -4.2402823076E+00   -4.2328038774E+00
   -4.2253517643E+00   -4.2179258205E+00   -4.2105259398E+00   -4.2031519866E+00
   -4.1958038256E+00   -4.1884813212E+00   -4.1811843379E+00   -4.1739127106E+00
   -4.1666663177E+00   -4.1594450494E+00   -4.1522487767E+00   -4.1450773703E+00
   -4.1379307010E+00   -4.1308086397E+00   -4.1237110232E+00   -4.1166377466E+00
   -4.1095887006E+00   -4.1025637621E+00   -4.0955628079E+00   -4.0885857149E+00
   -4.0816323598E+00   -4.0747025853E+00   -4.0677962942E+00   -4.0609133814E+00
   -4.0540537297E+00   -4.0472172214E+00   -4.0404037393E+00   -4.0336131659E+00
   -4.0268453529E+00   -4.0201002025E+00   -4.0133776177E+00   -4.0066774864E+00
   -3.9999996968E+00   -3.9933441368E+00
  </PP_LOCAL>
 <PP_NONLOCAL>
   <PP_BETA.1
       type="real"
       size=" 602"
       columns="4"
       index="1"
       angular_momentum="0"
       cutoff_radius_index=" 254"
       cutoff_radius="    2.5300000000E+00" >
    0.0000000000E+00    8.3641599794E-03    1.6714950080E-02    2.5038941725E-02
    3.3322589393E-02    4.1552173302E-02    4.9713743448E-02    5.7793065477E-02
    6.5775568802E-02    7.3646297416E-02    8.1389863809E-02    8.8990406396E-02
    9.6431550843E-02    1.0369637567E-01    1.1076738249E-01    1.1762647118E-01
    1.2425492032E-01    1.3063337328E-01    1.3674182995E-01    1.4255964471E-01
    1.4806553049E-01    1.5323756942E-01    1.5805322991E-01    1.6248939054E-01
    1.6652237067E-01    1.7012796785E-01    1.7328150212E-01    1.7595786711E-01
    1.7813158779E-01    1.7977688502E-01    1.8086774657E-01    1.8137800450E-01
    1.8128141862E-01    1.8055176557E-01    1.7916293532E-01    1.7708902868E-01
    1.7430446663E-01    1.7078409650E-01    1.6650330766E-01    1.6143815062E-01
    1.5556545611E-01    1.4886295967E-01    1.4130942777E-01    1.3288478557E-01
    1.2357024568E-01    1.1334843754E-01    1.0220353653E-01    9.0121392302E-02
    7.7089653812E-02    6.3097894585E-02    4.8137742325E-02    3.2202988110E-02
    1.5289691814E-02   -2.6036749939E-03   -2.1476163444E-02   -4.1324227973E-02
   -6.2141634472E-02   -8.3919394082E-02   -1.0664566100E-01   -1.3030569208E-01
   -1.5488177343E-01   -1.8035316607E-01   -2.0669610852E-01   -2.3388372127E-01
   -2.6188605252E-01   -2.9067006266E-01   -3.2019959366E-01   -3.5043543335E-01