<UPF version="2.0.1">
   <PP_INFO>
         UPF file from ATOMPAW code with following input
           Sm  62
           GGA-PBESOL  loggrid 700 scalarrelativistic logderivrange -8 8 500
           6 5 5 4 0
           5 2 1
           4 3 5
           0 0 0
           c
           c
           c
           c
           v
           v
           c
           c
           c
           v
           c
           c
           v
           v
           3
           2.516 2.096 2.516 2.516
           n
           y
           2.0
           n
           y
           2.0
           n
           y
           2.0
           n
           VANDERBILT BESSELSHAPE
           4 0.0
           2.476
           2.476
           2.476
           2.476
           2.476
           2.476
           2.476
           2.476
           
           # UPDATE 5 MAY 2021: 
           For compatibility issues, mesh_size in the header below is made same as
           mesh value.

  </PP_INFO>
  <!--                               -->
  <!-- END OF HUMAN READABLE SECTION -->
  <PP_HEADER generated="Generated using ATOMPAW code"
             author="   "
             date=" 12/23/2014, 15:05:11.134"
             element="Sm"
             pseudo_type="PAW"
             relativistic="scalar"
             is_ultrasoft="T"
             is_paw="T"
             is_coulomb="F"
             has_so="F"
             has_wfc="T"
             has_gipaw="T"
             paw_as_gipaw="T"
             core_correction="T"
             functional="SLA PW PSX PSC"
             z_valence="16.000"
             l_max="3"
             l_max_rho="6"
             mesh_size="   1107"
             number_of_wfc="     8"
             number_of_proj=" 8"
                                    /> 
<PP_MESH dx=" 1.2500000000000E-02" mesh="  1107" xmin="-7.0000000000000E+00" zmesh=" 6.2000000000000E+01">
 <PP_R type="real" size="  1107" columns="3">
  1.47077736379760691E-05  1.48927746559519719E-05  1.50801027002674539E-05
  1.52697870413105475E-05  1.54618573176454808E-05  1.56563435406436903E-05
  1.58532760991732031E-05  1.60526857643469549E-05  1.62546036943308132E-05
  1.64590614392121700E-05  1.66660909459296297E-05  1.68757245632648150E-05
  1.70879950468969373E-05  1.73029355645209157E-05  1.75205797010299650E-05
  1.77409614637631984E-05  1.79641152878194076E-05  1.81900760414376191E-05
  1.84188790314452816E-05  1.86505600087751236E-05  1.88851551740512000E-05
  1.91227011832453681E-05  1.93632351534048533E-05  1.96067946684518495E-05
  1.98534177850561447E-05  2.01031430385814444E-05  2.03560094491066849E-05
  2.06120565275229733E-05  2.08713242817072275E-05  2.11338532227735504E-05
  2.13996843714030873E-05  2.16688592642536591E-05  2.19414199604499016E-05
  2.22174090481551136E-05  2.24968696512257875E-05  2.27798454359497024E-05
  2.30663806178689408E-05  2.33565199686886381E-05  2.36503088232726310E-05
  2.39477930867272076E-05  2.42490192415737488E-05  2.45540343550117984E-05
  2.48628860862733927E-05  2.51756226940698763E-05  2.54922930441325349E-05
  2.58129466168478109E-05  2.61376335149888174E-05  2.64664044715439690E-05
  2.67993108576440950E-05  2.71364046905893746E-05  2.74777386419770011E-05
  2.78233660459313295E-05  2.81733409074374141E-05  2.85277179107793673E-05
  2.88865524280849976E-05  2.92499005279776649E-05  2.96178189843372104E-05
  2.99903652851709831E-05  3.03675976415964076E-05  3.07495749969367149E-05
  3.11363570359307967E-05  3.15280041940591493E-05  3.19245776669870409E-05
  3.23261394201264398E-05  3.27327521983182920E-05  3.31444795356364326E-05
  3.35613857653149888E-05  3.39835360298005530E-05  3.44109962909307744E-05
  3.48438333402411988E-05  3.52821148094013712E-05  3.57259091807825274E-05
  3.61752857981581210E-05  3.66303148775388242E-05  3.70910675181441326E-05
  3.75576157135115138E-05  3.80300323627456892E-05  3.85083912819092489E-05
  3.89927672155565089E-05  3.94832358484126326E-05  3.99798738171993281E-05
  4.04827587226096517E-05  4.09919691414331960E-05  4.15075846388338735E-05
  4.20296857807822322E-05  4.25583541466438968E-05  4.30936723419266218E-05
  4.36357240111875285E-05  4.41845938511027149E-05  4.47403676237014274E-05
  4.53031321697663320E-05  4.58729754224027043E-05  4.64499864207781101E-05
  4.70342553240349627E-05  4.76258734253781710E-05  4.82249331663396830E-05
  4.88315281512228299E-05  4.94457531617281120E-05  5.00677041717630412E-05
  5.06974783624383917E-05  5.13351741372526885E-05  5.19808911374681663E-05
  5.26347302576798110E-05  5.32967936615803573E-05  5.39671847979237423E-05
  5.46460084166889003E-05  5.53333705854473323E-05  5.60293787059363494E-05
  5.67341415308407810E-05  5.74477691807859597E-05  5.81703731615440374E-05
  5.89020663814571543E-05  5.96429631690795502E-05  6.03931792910416174E-05
  6.11528319701388318E-05  6.19220399036478038E-05  6.27009232818730671E-05
  6.34896038069271477E-05  6.42882047117466235E-05  6.50968507793477167E-05
  6.59156683623236513E-05  6.67447854025876895E-05  6.75843314513641802E-05
  6.84344376894312911E-05  6.92952369476183795E-05  7.01668637275607926E-05
  7.10494542227162331E-05  7.19431463396451938E-05  7.28480797195591242E-05
  7.37643957601398904E-05  7.46922376376329966E-05  7.56317503292195276E-05
  7.65830806356689948E-05  7.75463772042771915E-05  7.85217905520929480E-05
  7.95094730894363195E-05  8.05095791437131816E-05  8.15222649835292560E-05
  8.25476888431072778E-05  8.35860109470116846E-05  8.46373935351836168E-05
  8.57020008882915430E-05  8.67799993534003295E-05  8.78715573699633066E-05
  8.89768454961414797E-05  9.00960364354532188E-05  9.12293050637598066E-05
  9.23768284565900841E-05  9.35387859168087350E-05  9.47153590026330992E-05
  9.59067315560015128E-05  9.71130897312993393E-05  9.83346220244457695E-05
  9.95715193023467967E-05  1.00823974832718732E-04  1.02092184314286243E-04
  1.03376345907361017E-04  1.04676660264804635E-04  1.05993330563380854E-04
  1.07326562535502794E-04  1.08676564501378504E-04  1.10043547401561732E-04
  1.11427724829911805E-04  1.12829313066967912E-04  1.14248531113743962E-04
  1.15685600725946757E-04  1.17140746448627281E-04  1.18614195651265100E-04
  1.20106178563295774E-04  1.21616928310085102E-04  1.23146680949354226E-04
  1.24695675508065660E-04  1.26264154019770553E-04  1.27852361562427318E-04
  1.29460546296696137E-04  1.31088959504713085E-04  1.32737855629355331E-04
  1.34407492313996931E-04  1.36098130442766611E-04  1.37810034181312034E-04
  1.39543471018074752E-04  1.41298711806087557E-04  1.43076030805294497E-04
  1.44875705725405101E-04  1.46698017769287490E-04  1.48543251676905476E-04
  1.50411695769811727E-04  1.52303641996196962E-04  1.54219385976508142E-04
  1.56159227049640191E-04  1.58123468319706911E-04  1.60112416703403406E-04
  1.62126382977961070E-04  1.64165681829707546E-04  1.66230631903237892E-04
  1.68321555851201686E-04  1.70438780384720248E-04  1.72582636324434315E-04
  1.74753458652195988E-04  1.76951586563411104E-04  1.79177363520037188E-04
  1.81431137304252649E-04  1.83713260072796396E-04  1.86024088411993892E-04
  1.88363983393475035E-04  1.90733310630590618E-04  1.93132440335542301E-04
  1.95561747377227401E-04  1.98021611339813482E-04  2.00512416582049883E-04
  2.03034552297322562E-04  2.05588412574468849E-04  2.08174396459352777E-04
  2.10792908017217416E-04  2.13444356395821625E-04  2.16129155889368190E-04
  2.18847726003240856E-04  2.21600491519550693E-04  2.24387882563509977E-04
  2.27210334670640906E-04  2.30068288854826689E-04  2.32962191677223867E-04
  2.35892495316035851E-04  2.38859657637167743E-04  2.41864142265769641E-04
  2.44906418658676550E-04  2.47986962177765041E-04  2.51106254164227280E-04
  2.54264782013782049E-04  2.57463039252832631E-04  2.60701525615578632E-04
  2.63980747122103689E-04  2.67301216157439612E-04  2.70663451551628371E-04
  2.74067978660791692E-04  2.77515329449215834E-04  2.81006042572476021E-04
  2.84540663461599417E-04  2.88119744408290852E-04  2.91743844651230864E-04
  2.95413530463454479E-04  2.99129375240836859E-04  3.02891959591684010E-04
  3.06701871427455738E-04  3.10559706054627923E-04  3.14466066267709589E-04
  3.18421562443431936E-04  3.22426812636119860E-04  3.26482442674264387E-04
  3.30589086258310609E-04  3.34747385059673260E-04  3.38957988821000477E-04
  3.43221555457696385E-04  3.47538751160722103E-04  3.51910250500689890E-04
  3.56336736533265216E-04  3.60818900905896813E-04  3.65357443965886642E-04
  3.69953074869821456E-04  3.74606511694380265E-04  3.79318481548533975E-04
  3.84089720687159366E-04  3.88920974626078637E-04  3.93812998258548960E-04
  3.98766555973216084E-04  4.03782421773550755E-04  4.08861379398789459E-04
  4.14004222446394084E-04  4.19211754496053967E-04  4.24484789235247018E-04
  4.29824150586378799E-04  4.35230672835523942E-04  4.40705200762783354E-04
  4.46248589774283502E-04  4.51861706035835823E-04  4.57545426608275843E-04
  4.63300639584506978E-04  4.69128244228265729E-04  4.75029151114633686E-04
  4.81004282272317924E-04  4.87054571327717777E-04  4.93180963650807986E-04
  4.99384416502853109E-04  5.05665899185982052E-04  5.12026393194644439E-04
  5.18466892368968845E-04  5.24988403050055349E-04  5.31591944237215530E-04
  5.38278547747194822E-04  5.45049258375396089E-04  5.51905134059129570E-04
  5.58847246042919773E-04  5.65876679045887758E-04  5.72994531431241416E-04
  5.80201915377897854E-04  5.87499957054261803E-04  5.94889796794193806E-04
  6.02372589275187455E-04  6.09949503698791699E-04  6.17621723973300961E-04
  6.25390448898742045E-04  6.33256892354190550E-04  6.41222283487440656E-04
  6.49287866907062106E-04  6.57454902876874634E-04  6.65724667512863693E-04
  6.74098452982579326E-04  6.82577567707037380E-04  6.91163336565164257E-04
  6.99857101100812527E-04  7.08660219732377755E-04  7.17574067965056771E-04
  7.26600038605771346E-04  7.35739541980796842E-04  7.44994006156130960E-04
  7.54364877160628735E-04  7.63853619211950479E-04  7.73461714945346333E-04
  7.83190665645322188E-04  7.93041991480219078E-04  8.03017231739741057E-04
  8.13117945075473854E-04  8.23345709744426058E-04  8.33702123855635676E-04
  8.44188805619877072E-04  8.54807393602512958E-04  8.65559546979518331E-04
  8.76446945796733701E-04  8.87471291232375158E-04  8.98634305862845077E-04
  9.09937733931892785E-04  9.21383341623149919E-04  9.32972917336104550E-04
  9.44708271965541283E-04  9.56591239184495469E-04  9.68623675730773256E-04
  9.80807461697064033E-04  9.93144500824713573E-04  1.00563672080118487E-03
  1.01828607356126404E-03  1.03109453559205766E-03  1.04406410824181540E-03
  1.05719681803265100E-03  1.07049471697718787E-03  1.08395988289918953E-03
  1.09759441975822896E-03  1.11140045797842885E-03  1.12538015478134946E-03
  1.13953569452305854E-03  1.15386928903543889E-03  1.16838317797179772E-03
  1.18307962915680854E-03  1.19796093894086937E-03  1.21302943255891015E-03
  1.22828746449371497E-03  1.24373741884381789E-03  1.25938170969601892E-03
  1.27522278150259171E-03  1.29126310946323531E-03  1.30750519991182628E-03
  1.32395159070804506E-03  1.34060485163391228E-03  1.35746758479532914E-03
  1.37454242502865927E-03  1.39183204031242741E-03  1.40933913218419969E-03
  1.42706643616269868E-03  1.44501672217523728E-03  1.46319279499052511E-03
  1.48159749465691772E-03  1.50023369694618535E-03  1.51910431380284988E-03
  1.53821229379918806E-03  1.55756062259594934E-03  1.57715232340887180E-03
  1.59699045748106926E-03  1.61707812456135069E-03  1.63741846338856588E-03
  1.65801465218203925E-03  1.67886990913817180E-03  1.69998749293329577E-03
  1.72137070323284203E-03  1.74302288120692437E-03  1.76494741005240306E-03
  1.78714771552151552E-03  1.80962726645715697E-03  1.83238957533489954E-03
  1.85543819881181342E-03  1.87877673828221008E-03  1.90240884044036418E-03
  1.92633819785031652E-03  1.95056854952284993E-03  1.97510368149970885E-03
  1.99994742744518186E-03  2.02510366924511798E-03  2.05057633761347724E-03
  2.07636941270651978E-03  2.10248692474470462E-03  2.12893295464242375E-03
  2.15571163464565356E-03  2.18282714897762411E-03  2.21028373449262076E-03
  2.23808568133798853E-03  2.26623733362448692E-03  2.29474309010505939E-03
  2.32360740486214955E-03  2.35283478800366822E-03  2.38242980636769108E-03
  2.41239708423605015E-03  2.44274130405688168E-03  2.47346720717626575E-03
  2.50457959457908112E-03  2.53608332763915600E-03  2.56798332887887663E-03
  2.60028458273833677E-03  2.63299213635416777E-03  2.66611110034817040E-03
  2.69964664962584790E-03  2.73360402418500311E-03  2.76798852993449763E-03
  2.80280553952330863E-03  2.83806049318002449E-03  2.87375889956287874E-03
  2.90990633662049783E-03  2.94650845246346429E-03  2.98357096624684301E-03
  3.02109966906382319E-03  3.05910042485056958E-03  3.09757917130248743E-03
  3.13654192080199462E-03  3.17599476135796855E-03  3.21594385755701907E-03
  3.25639545152670105E-03  3.29735586391087260E-03  3.33883149485730314E-03
  3.38082882501770671E-03  3.42335441656037255E-03  3.46641491419549461E-03
  3.51001704621343568E-03  3.55416762553603226E-03  3.59887355078112627E-03
  3.64414180734049832E-03  3.68997946847133065E-03  3.73639369640143366E-03
  3.78339174344835202E-03  3.83098095315255070E-03  3.87916876142487379E-03
  3.92796269770839986E-03  3.97737038615494486E-03  4.02739954681635010E-03
  4.07805799685074903E-03  4.12935365174403341E-03  4.18129452654663909E-03
  4.23388873712592616E-03  4.28714450143430261E-03  4.34107014079328831E-03
  4.39567408119375270E-03  4.45096485461247103E-03  4.50695110034528106E-03
  4.56364156635698497E-03  4.62104511064822740E-03  4.67917070263960261E-03
  4.73802742457311160E-03  4.79762447293130209E-03  4.85797115987423103E-03
  4.91907691469450469E-03  4.98095128529064349E-03  5.04360393965893380E-03
  5.10704466740408668E-03  5.17128338126888500E-03  5.23633011868305989E-03
  5.30219504333168026E-03  5.36888844674322015E-03  5.43642074989765262E-03
  5.50480250485474096E-03  5.57404439640281531E-03  5.64415724372831391E-03
  5.71515200210627114E-03  5.78703976461212525E-03  5.85983176385502375E-03
  5.93353937373294112E-03  6.00817411120988746E-03  6.08374763811543682E-03
  6.16027176296692156E-03  6.23775844281454061E-03  6.31621978510966096E-03
  6.39566804959666030E-03  6.47611565022849622E-03  6.55757515710644109E-03
  6.64005929844417326E-03  6.72358096255658722E-03  6.80815319987363755E-03
  6.89378922497946474E-03  6.98050241867721830E-03  7.06830633007983142E-03
  7.15721467872709478E-03  7.24724135672938190E-03  7.33840043093828519E-03
  7.43070614514461467E-03  7.52417292230401092E-03  7.61881536679055987E-03
  7.71464826667877645E-03  7.81168659605423633E-03  7.90994551735332840E-03
  8.00944038373241698E-03  8.11018674146678914E-03  8.21220033237982788E-03
  8.31549709630264970E-03  8.42009317356478063E-03  8.52600490751609201E-03
  8.63324884708048870E-03  8.74184174934172949E-03  8.85180058216171982E-03
  8.96314252683180074E-03  9.07588498075735661E-03  9.19004556017617713E-03
  9.30564210291107662E-03  9.42269267115703260E-03  9.54121555430347511E-03
  9.66122927179202846E-03  9.78275257601021568E-03  9.90580445522157987E-03
  1.00304041365325870E-02  1.01565710888969415E-02  1.02843250261576407E-02
  1.04136859101272919E-02  1.05446739537072166E-02  1.06773096240457138E-02
  1.08116136457361237E-02  1.09476070040550773E-02  1.10853109482414881E-02
  1.12247469948168078E-02  1.13659369309469949E-02  1.15089028178468212E-02
  1.16536669942269785E-02  1.18002520797845442E-02  1.19486809787373877E-02
  1.20989768834029367E-02  1.22511632778220785E-02  1.24052639414285650E-02
  1.25613029527645945E-02  1.27193046932431737E-02  1.28792938509576984E-02
  1.30412954245395628E-02  1.32053347270642343E-02  1.33714373900064576E-02
  1.35396293672452820E-02  1.37099369391193299E-02  1.38823867165331974E-02
  1.40570056451154602E-02  1.42338210094289583E-02  1.44128604372341252E-02
  1.45941519038058042E-02  1.47777237363044857E-02  1.49636046182024755E-02
  1.51518235937657380E-02  1.53424100725921640E-02  1.55353938342068093E-02
  1.57308050327150499E-02  1.59286742015142292E-02  1.61290322580645157E-02
  1.63319105087199150E-02  1.65373406536198260E-02  1.67453547916423459E-02
  1.69559854254197548E-02  1.71692654664170850E-02  1.73852282400747057E-02
  1.76039074910153553E-02  1.78253373883169065E-02  1.80495525308513108E-02
  1.82765879526907461E-02  1.85064791285818146E-02  1.87392619794884453E-02
  1.89749728782046961E-02  1.92136486550380479E-02  1.94553266035642040E-02
  1.97000444864543559E-02  1.99478405413755673E-02  2.01987534869655649E-02
  2.04528225288825860E-02  2.07100873659313116E-02  2.09705881962659879E-02
  2.12343657236713224E-02  2.15014611639226354E-02  2.17719162512258722E-02
  2.20457732447386506E-02  2.23230749351734127E-02  2.26038646514834483E-02
  2.28881862676331947E-02  2.31760842094536346E-02  2.34676034615838927E-02
  2.37627895745002558E-02  2.40616886716333994E-02  2.43643474565753762E-02
  2.46708132203770948E-02  2.49811338489376311E-02  2.52953578304866006E-02
  2.56135342631603861E-02  2.59357128626739319E-02  2.62619439700888871E-02
  2.65922785596794872E-02  2.69267682468974680E-02  2.72654652964369644E-02
  2.76084226304010548E-02  2.79556938365709100E-02  2.83073331767790086E-02
  2.86633955953877230E-02  2.90239367278743408E-02  2.93890129095243542E-02
  2.97586811842338872E-02  3.01329993134229410E-02  3.05120257850608097E-02
  3.08958198228047841E-02  3.12844413952541173E-02  3.16779512253201403E-02
  3.20764107997143846E-02  3.24798823785560839E-02  3.28884290051002573E-02
  3.33021145155885101E-02  3.37210035492234994E-02  3.41451615582689452E-02
  3.45746548182767691E-02  3.50095504384426298E-02  3.54499163720919871E-02
  3.58958214272978929E-02  3.63473352776323977E-02  3.68045284730532940E-02
  3.72674724509274927E-02  3.77362395471934203E-02  3.82109030076635756E-02
  3.86915369994693253E-02  3.91782166226498155E-02  3.96710179218862993E-02
  4.01700178983843900E-02  4.06752945219056375E-02  4.11869267429504290E-02
  4.17049945050943019E-02  4.22295787574790624E-02  4.27607614674614181E-02
  4.32986256334205177E-02  4.38432552977265355E-02  4.43947355598726945E-02
  4.49531525897717971E-02  4.55185936412209613E-02  4.60911470655349306E-02
  4.66709023253509894E-02  4.72579500086081419E-02  4.78523818427011027E-02
  4.84542907088134217E-02  4.90637706564300904E-02  4.96809169180327595E-02
  5.03058259239805711E-02  5.09385953175769193E-02  5.15793239703270096E-02
  5.22281119973865005E-02  5.28850607732044078E-02  5.35502729473637321E-02
  5.42238524606198438E-02  5.49059045611422214E-02  5.55965358209593100E-02
  5.62958541526103473E-02  5.70039688260076324E-02  5.77209904855093617E-02
  5.84470311672087225E-02  5.91822043164394601E-02  5.99266248055016770E-02
  6.06804089516115239E-02  6.14436745350752031E-02  6.22165408176931153E-02
  6.29991285613944324E-02  6.37915600471060801E-02  6.45939590938601482E-02
  6.54064510781399433E-02  6.62291629534711435E-02  6.70622232702582366E-02
  6.79057621958703284E-02  6.87599115349809969E-02  6.96248047501620143E-02
  7.05005769827380113E-02  7.13873650739022259E-02  7.22853075860978161E-02
  7.31945448246694719E-02  7.41152188597853229E-02  7.50474735486365840E-02
  7.59914545579152417E-02  7.69473093865742364E-02  7.79151873888755397E-02
  7.88952397977259051E-02  7.98876197483082834E-02  8.08924823020090722E-02
  8.19099844706464714E-02  8.29402852410047048E-02  8.39835455996750108E-02
  8.50399285582111308E-02  8.61095991785996717E-02  8.71927245990510719E-02
  8.82894740601162104E-02  8.94000189311294213E-02  9.05245327369863656E-02
  9.16631911852572173E-02  9.28161721936408141E-02  9.39836559177657932E-02
  9.51658247793390061E-02  9.63628634946503554E-02  9.75749591034346803E-02
  9.88023009980965594E-02  1.00045080953304374E-01  1.01303493155954299E-01
  1.02577734235513376E-01  1.03868003294742967E-01  1.05174501940808268E-01
  1.06497434316781200E-01  1.07837007133536653E-01  1.09193429702052799E-01
  1.10566913966115857E-01  1.11957674535436064E-01  1.13365928719182274E-01
  1.14791896559935436E-01  1.16235800868072017E-01  1.17697867256578007E-01
  1.19178324176300809E-01  1.20677402951646542E-01  1.22195337816723371E-01
  1.23732365951942383E-01  1.25288727521077059E-01  1.26864665708788571E-01
  1.28460426758625484E-01  1.30076260011497996E-01  1.31712417944639448E-01
  1.33369156211056022E-01  1.35046733679472009E-01  1.36745412474780337E-01
  1.38465458018998316E-01  1.40207139072741960E-01  1.41970727777219557E-01
  1.43756499696753831E-01  1.45564733861840823E-01  1.47395712812747215E-01
  1.49249722643659516E-01  1.51127053047386051E-01  1.53027997360621393E-01
  1.54952852609782449E-01  1.56901919557417530E-01  1.58875502749202924E-01
  1.60873910561527861E-01  1.62897455249678275E-01  1.64946452996629189E-01
  1.67021223962446702E-01  1.69122092334315660E-01  1.71249386377193724E-01
  1.73403438485102507E-01  1.75584585233066914E-01  1.77793167429703303E-01
  1.80029530170473628E-01  1.82294022891606289E-01  1.84586999424695503E-01
  1.86908818051990361E-01  1.89259841562374409E-01  1.91640437308054773E-01
  1.94050977261960300E-01  1.96491838075862485E-01  1.98963401139230112E-01
  2.01466052638819559E-01  2.04000183619019698E-01  2.06566190042952291E-01
  2.09164472854340866E-01  2.11795438040161765E-01  2.14459496694077240E-01
  2.17157065080672729E-01  2.19888564700496197E-01  2.22654422355920895E-01
  2.25455070217833009E-01  2.28290945893158181E-01  2.31162492493241112E-01
  2.34070158703079428E-01  2.37014398851434549E-01  2.39995672981820146E-01
  2.43014446924383731E-01  2.46071192368696456E-01  2.49166386937452022E-01
  2.52300514261099562E-01  2.55474064053410221E-01  2.58687532187994784E-01
  2.61941420775788025E-01  2.65236238243501010E-01  2.68572499413066823E-01
  2.71950725582081443E-01  2.75371444605255811E-01  2.78835190976897795E-01
  2.82342505914424058E-01  2.85893937442929735E-01  2.89490040480817057E-01
  2.93131376926501097E-01  2.96818515746210820E-01  3.00552033062887358E-01
  3.04332512246207831E-01  3.08160544003736603E-01  3.12036726473222836E-01
  3.15961665316064844E-01  3.19935973811940833E-01  3.23960272954639805E-01
  3.28035191549090777E-01  3.32161366309613459E-01  3.36339441959410235E-01
  3.40570071331300406E-01  3.44853915469731320E-01  3.49191643734065749E-01
  3.53583933903168890E-01  3.58031472281317154E-01  3.62534953805429438E-01
  3.67095082153656938E-01  3.71712569855332242E-01  3.76388138402301953E-01
  3.81122518361665330E-01  3.85916449489921820E-01  3.90770680848564200E-01
  3.95685970921118957E-01  4.00663087731658818E-01  4.05702808964812867E-01
  4.10805922087275732E-01  4.15973224470855829E-01  4.21205523517064417E-01
  4.26503636783271023E-01  4.31868392110454136E-01  4.37300627752546911E-01
  4.42801192507420949E-01  4.48370945849511149E-01  4.54010758064107345E-01
  4.59721510383343857E-01  4.65504095123887685E-01  4.71359415826370032E-01
  4.77288387396564207E-01  4.83291936248339105E-01  4.89371000448418692E-01
  4.95526529862950538E-01  5.01759486305930036E-01  5.08070843689483298E-01
  5.14461588176040374E-01  5.20932718332431044E-01  5.27485245285906013E-01
  5.34120192882134082E-01  5.40838597845176849E-01  5.47641509939476689E-01
  5.54529992133890759E-01  5.61505120767775034E-01  5.68567985719169999E-01
  5.75719690575095311E-01  5.82961352803982868E-01  5.90294103930290914E-01
  5.97719089711299945E-01  6.05237470316145165E-01  6.12850420507093596E-01
  6.20559129823099020E-01  6.28364802765677744E-01  6.36268658987105717E-01
  6.44271933480998871E-01  6.52375876775281194E-01  6.60581755127577441E-01
  6.68890850723077635E-01  6.77304461874871144E-01  6.85823903226819076E-01
  6.94450505958967179E-01  7.03185617995540468E-01  7.12030604215569185E-01
  7.20986846666142878E-01  7.30055744778367210E-01  7.39238715586024386E-01
  7.48537193946983481E-01  7.57952632767408874E-01  7.67486503228769434E-01
  7.77140295017722860E-01  7.86915516558878370E-01  7.96813695250486953E-01
  8.06836377703109897E-01  8.16985129981268821E-01  8.27261537848156481E-01
  8.37667207013411130E-01  8.48203763384007270E-01  8.58872853318317642E-01
  8.69676143883347796E-01  8.80615323115229609E-01  8.91692100282975519E-01
  9.02908206155550896E-01  9.14265393272320481E-01  9.25765436216874793E-01
  9.37410131894322318E-01  9.49201299812055810E-01  9.61140782364048207E-01
  9.73230445118742904E-01  9.85472177110538250E-01  9.97867891134965879E-01
  1.01041952404756308E+00  1.02312903706650560E+00  1.03599841607906362E+00
  1.04902967195188723E+00  1.06222484084522084E+00  1.07558598453105181E+00
  1.08911519071526053E+00  1.10281457336384237E+00  1.11668627303320389E+00
  1.13073245720464288E+00  1.14495532062301497E+00  1.15935708563966244E+00
  1.17394000255967335E+00  1.18870634999348135E+00  1.20365843521291782E+00
  1.21879859451172057E+00  1.23412919357057893E+00  1.24965262782678987E+00
  1.26537132284853482E+00  1.28128773471389246E+00  1.29740435039460178E+00
  1.31372368814464746E+00  1.33024829789375998E+00  1.34698076164582692E+00
  1.36392369388235490E+00  1.38107974197097838E+00  1.39845158657911139E+00
  1.41604194209282119E+00  1.43385355704094075E+00  1.45188921452454545E+00
  1.47015173265181365E+00  1.48864396497835294E+00  1.50736880095309278E+00
  1.52632916636974425E+00  1.54552802382398191E+00  1.56496837317634596E+00
  1.58465325202096885E+00  1.60458573616022493E+00  1.62476894008530848E+00
  1.64520601746289818E+00  1.66590016162791699E+00  1.68685460608248738E+00
  1.70807262500119394E+00  1.72955753374265431E+00  1.75131268936757412E+00
  1.77334149116328410E+00  1.79564738117487654E+00  1.81823384474305372E+00
  1.84110441104869427E+00  1.86426265366431720E+00  1.88771219111245014E+00
  1.91145668743102148E+00  1.93549985274589620E+00  1.95984544385056392E+00
  1.98449726479317001E+00  2.00945916747089459E+00  2.03473505223180906E+00
  2.06032886848433927E+00  2.08624461531433836E+00  2.11248634210997732E+00
  2.13905814919446247E+00  2.16596418846670202E+00  2.19320866405008230E+00
  2.22079583294933425E+00  2.24873000571572845E+00  2.27701554712059684E+00
  2.30565687683732268E+00  2.33465847013195393E+00  2.36402485856243860E+00
  2.39376063068671918E+00  2.42387043277969338E+00  2.45435896955918720E+00
  2.48523100492111171E+00  2.51649136268379214E+00  2.54814492734173337E+00
  2.58019664482881739E+00  2.61265152329110251E+00  2.64551463386938668E+00
  2.67879111149155014E+00  2.71248615567492646E+00  2.74660503133872824E+00
  2.78115306962668285E+00  2.81613566874007182E+00  2.85155829478116862E+00
  2.88742648260736567E+00  2.92374583669598964E+00  2.96052203201999964E+00
  2.99776081493474722E+00  3.03546800407581419E+00  3.07364949126822573E+00
  3.11231124244704160E+00  3.15145929858953133E+00  3.19109977665912492E+00
  3.23123887056115855E+00  3.27188285211072394E+00  3.31303807201263467E+00
  3.35471096085372000E+00  3.39690803010765707E+00  3.43963587315235575E+00
  3.48290116630022739E+00  3.52671066984135795E+00  3.57107122909979280E+00
  3.61598977550318201E+00  3.66147332766577582E+00  3.70752899248514245E+00
  3.75416396625261761E+00  3.80138553577771976E+00  3.84920107952677215E+00
  3.89761806877575445E+00  3.94664406877774798E+00  3.99628673994500527E+00
  4.04655383904588017E+00  4.09745322041689164E+00  4.14899283718991896E+00
  4.20118074253494811E+00  4.25402509091837455E+00  4.30753413937713159E+00
  4.36171624880891962E+00  4.41657988527855760E+00  4.47213362134087067E+00
  4.52838613738015372E+00  4.58534622296646699E+00  4.64302277822908671E+00
  4.70142481524709943E+00  4.76056145945761777E+00  4.82044195108162210E+00
  4.88107564656773985E+00  4.94247202005426711E+00  5.00464066484945835E+00
  5.06759129493055216E+00  5.13133374646158202E+00  5.19587797933026696E+00
  5.26123407870432747E+00  5.32741225660724016E+00  5.39442285351395245E+00
  5.46227633996657325E+00  5.53098331821039313E+00  5.60055452385056629E+00
  5.67100082752949675E+00  5.74233323662546891E+00  5.81456289697254380E+00
  5.88770109460207891E+00  5.96175925750627833E+00  6.03674895742374495E+00
  6.11268191164767050E+00  6.18956998485664922E+00  6.26742519096852924E+00
  6.34625969501768505E+00  6.42608581505574072E+00  6.50691602407637237E+00
  6.58876295196420259E+00  6.67163938746820673E+00  6.75555828020006910E+00
  6.84053274265749334E+00  6.92657605227312789E+00  7.01370165348917141E+00
  7.10192315985804701E+00  7.19125435616963848E+00  7.28170920060508919E+00
  7.37330182691788671E+00  7.46604654664225098E+00  7.55995785132930642E+00
  7.65505041481149906E+00  7.75133909549531275E+00  7.84883893868301996E+00
  7.94756517892349645E+00  8.04753324239261403E+00  8.14875874930370081E+00
  8.25125751634813298E+00  8.35504555916680580E+00  8.46013909485258786E+00
  8.56655454448421239E+00  8.67430853569221583E+00  8.78341790525692723E+00
  8.89389970173933442E+00  9.00577118814493538E+00  9.11904984462105084E+00
  9.23375337118825534E+00  9.34989969050591085E+00  9.46750695067272297E+00
  9.58659352806239085E+00  9.70717803019487491E+00  9.82927929864400163E+00
  9.95291641198134869E+00  1.00781086887574336E+01  1.02048756905202271E+01
  1.03332372248716275E+01  1.04632133485625651E+01  1.05948243706267711E+01
  1.07280908555542229E+01  1.08630336265043450E+01  1.09996737685596049E+01
  1.11380326320202307E+01  1.12781318357400941E+01  1.14199932705048290E+01
  1.15636391024522567E+01  1.17090917765358284E+01  1.18563740200318382E+01
  1.20055088460904358E+01  1.21565195573316345E+01  1.23094297494863163E+01
  1.24642633150830644E+01  1.26210444471815570E+01  1.27797976431526141E+01
  1.29405477085061129E+01  1.31033197607668388E+01  1.32681392333990722E+01
  1.34350318797807873E+01  1.36040237772274768E+01  1.37751413310669601E+01
  1.39484112787651906E+01  1.41238606941039659E+01  1.43015169914114395E+01
  1.44814079298454566E+01  1.46635616177311654E+01  1.48480065169529194E+01
                               </PP_R> 