<UPF version="2.0.1">
<PP_INFO>

This pseudopotential file has been produced using the code
ONCVPSP  (Optimized Norm-Conservinng Vanderbilt PSeudopotential)
fully-relativistic version 3.3.0 08/16/2017 by D. R. Hamann
The code is available through a link at URL www.mat-simresearch.com.
Documentation with the package provides a full discription of the
input data below.


While it is not required under the terms of the GNU GPL, it is
suggested that you cite D. R. Hamann, Phys. Rev. B 88, 085117 (2013)
in any publication using these pseudopotentials.

<PP_INPUTFILE>
# ATOM AND REFERENCE CONFIGURATION
# atsym  z   nc   nv     iexc    psfile
Ne 10.00    1    2 -116133      upf
#
#   n    l    f        energy (Ha)
1    0    2.00
2    0    2.00
2    1    6.00
#
# PSEUDOPOTENTIAL AND OPTIMIZATION
# lmax
1
#
#   l,   rc,     ep,   ncon, nbas, qcut
0   1.30000  -1.33029    4    7   9.00000
1   1.50000  -0.48638    4    7   8.80000
#
# LOCAL POTENTIAL
# lloc, lpopt,  rc(5),   dvloc0
4    5   1.30000      0.00000
#
# VANDERBILT-KLEINMAN-BYLANDER PROJECTORs
# l, nproj, debl
0    2   1.50000
1    2   1.49874
#
# MODEL CORE CHARGE
# icmod, fcfact, rcfact
0   0.00000   0.00000
#
# LOG DERIVATIVE ANALYSIS
# epsh1, epsh2, depsh
-12.00   12.00    0.02
#
# OUTPUT GRID
# rlmax, drl
4.00    0.01
#
# TEST CONFIGURATIONS
# ncnf
0
# nvcnf
#   n    l    f
</PP_INPUTFILE>
</PP_INFO>
<!--                               -->
<!-- END OF HUMAN READABLE SECTION -->
<!--                               -->
<PP_HEADER
generated="Generated using ONCVPSP code by D. R. Hamann"
author="anonymous"
date="180509"
comment=""
element="Ne"
pseudo_type="NC"
relativistic="full"
is_ultrasoft="F"
is_paw="F"
is_coulomb="F"
has_so="T"
has_wfc="F"
has_gipaw="F"
core_correction="F"
functional="PBESOL"
z_valence="    8.00"
total_psenergy="  -6.76892438508E+01"
rho_cutoff="   7.57000000000E+00"
l_max="1"
l_local="-1"
mesh_size="   758"
number_of_wfc="3"
number_of_proj="6"/>
<PP_MESH>
<PP_R type="real"  size=" 758" columns="8">
0.0000    0.0100    0.0200    0.0300    0.0400    0.0500    0.0600    0.0700
0.0800    0.0900    0.1000    0.1100    0.1200    0.1300    0.1400    0.1500
0.1600    0.1700    0.1800    0.1900    0.2000    0.2100    0.2200    0.2300
0.2400    0.2500    0.2600    0.2700    0.2800    0.2900    0.3000    0.3100
0.3200    0.3300    0.3400    0.3500    0.3600    0.3700    0.3800    0.3900
0.4000    0.4100    0.4200    0.4300    0.4400    0.4500    0.4600    0.4700
0.4800    0.4900    0.5000    0.5100    0.5200    0.5300    0.5400    0.5500
0.5600    0.5700    0.5800    0.5900    0.6000    0.6100    0.6200    0.6300
0.6400    0.6500    0.6600    0.6700    0.6800    0.6900    0.7000    0.7100
0.7200    0.7300    0.7400    0.7500    0.7600    0.7700    0.7800    0.7900
0.8000    0.8100    0.8200    0.8300    0.8400    0.8500    0.8600    0.8700
0.8800    0.8900    0.9000    0.9100    0.9200    0.9300    0.9400    0.9500
0.9600    0.9700    0.9800    0.9900    1.0000    1.0100    1.0200    1.0300
1.0400    1.0500    1.0600    1.0700    1.0800    1.0900    1.1000    1.1100
1.1200    1.1300    1.1400    1.1500    1.1600    1.1700    1.1800    1.1900
1.2000    1.2100    1.2200    1.2300    1.2400    1.2500    1.2600    1.2700
1.2800    1.2900    1.3000    1.3100    1.3200    1.3300    1.3400    1.3500
1.3600    1.3700    1.3800    1.3900    1.4000    1.4100    1.4200    1.4300
1.4400    1.4500    1.4600    1.4700    1.4800    1.4900    1.5000    1.5100
1.5200    1.5300    1.5400    1.5500    1.5600    1.5700    1.5800    1.5900
1.6000    1.6100    1.6200    1.6300    1.6400    1.6500    1.6600    1.6700
1.6800    1.6900    1.7000    1.7100    1.7200    1.7300    1.7400    1.7500
1.7600    1.7700    1.7800    1.7900    1.8000    1.8100    1.8200    1.8300
1.8400    1.8500    1.8600    1.8700    1.8800    1.8900    1.9000    1.9100
1.9200    1.9300    1.9400    1.9500    1.9600    1.9700    1.9800    1.9900
2.0000    2.0100    2.0200    2.0300    2.0400    2.0500    2.0600    2.0700
2.0800    2.0900    2.1000    2.1100    2.1200    2.1300    2.1400    2.1500
2.1600    2.1700    2.1800    2.1900    2.2000    2.2100    2.2200    2.2300
2.2400    2.2500    2.2600    2.2700    2.2800    2.2900    2.3000    2.3100
2.3200    2.3300    2.3400    2.3500    2.3600    2.3700    2.3800    2.3900
2.4000    2.4100    2.4200    2.4300    2.4400    2.4500    2.4600    2.4700
2.4800    2.4900    2.5000    2.5100    2.5200    2.5300    2.5400    2.5500
2.5600    2.5700    2.5800    2.5900    2.6000    2.6100    2.6200    2.6300
2.6400    2.6500    2.6600    2.6700    2.6800    2.6900    2.7000    2.7100
2.7200    2.7300    2.7400    2.7500    2.7600    2.7700    2.7800    2.7900
2.8000    2.8100    2.8200    2.8300    2.8400    2.8500    2.8600    2.8700
2.8800    2.8900    2.9000    2.9100    2.9200    2.9300    2.9400    2.9500
2.9600    2.9700    2.9800    2.9900    3.0000    3.0100    3.0200    3.0300
3.0400    3.0500    3.0600    3.0700    3.0800    3.0900    3.1000    3.1100
3.1200    3.1300    3.1400    3.1500    3.1600    3.1700    3.1800    3.1900
3.2000    3.2100    3.2200    3.2300    3.2400    3.2500    3.2600    3.2700
3.2800    3.2900    3.3000    3.3100    3.3200    3.3300    3.3400    3.3500
3.3600    3.3700    3.3800    3.3900    3.4000    3.4100    3.4200    3.4300
3.4400    3.4500    3.4600    3.4700    3.4800    3.4900    3.5000    3.5100
3.5200    3.5300    3.5400    3.5500    3.5600    3.5700    3.5800    3.5900
3.6000    3.6100    3.6200    3.6300    3.6400    3.6500    3.6600    3.6700
3.6800    3.6900    3.7000    3.7100    3.7200    3.7300    3.7400    3.7500
3.7600    3.7700    3.7800    3.7900    3.8000    3.8100    3.8200    3.8300
3.8400    3.8500    3.8600    3.8700    3.8800    3.8900    3.9000    3.9100
3.9200    3.9300    3.9400    3.9500    3.9600    3.9700    3.9800    3.9900
4.0000    4.0100    4.0200    4.0300    4.0400    4.0500    4.0600    4.0700
4.0800    4.0900    4.1000    4.1100    4.1200    4.1300    4.1400    4.1500
4.1600    4.1700    4.1800    4.1900    4.2000    4.2100    4.2200    4.2300
4.2400    4.2500    4.2600    4.2700    4.2800    4.2900    4.3000    4.3100
4.3200    4.3300    4.3400    4.3500    4.3600    4.3700    4.3800    4.3900
4.4000    4.4100    4.4200    4.4300    4.4400    4.4500    4.4600    4.4700
4.4800    4.4900    4.5000    4.5100    4.5200    4.5300    4.5400    4.5500
4.5600    4.5700    4.5800    4.5900    4.6000    4.6100    4.6200    4.6300
4.6400    4.6500    4.6600    4.6700    4.6800    4.6900    4.7000    4.7100
4.7200    4.7300    4.7400    4.7500    4.7600    4.7700    4.7800    4.7900
4.8000    4.8100    4.8200    4.8300    4.8400    4.8500    4.8600    4.8700
4.8800    4.8900    4.9000    4.9100    4.9200    4.9300    4.9400    4.9500
4.9600    4.9700    4.9800    4.9900    5.0000    5.0100    5.0200    5.0300
5.0400    5.0500    5.0600    5.0700    5.0800    5.0900    5.1000    5.1100
5.1200    5.1300    5.1400    5.1500    5.1600    5.1700    5.1800    5.1900
5.2000    5.2100    5.2200    5.2300    5.2400    5.2500    5.2600    5.2700
5.2800    5.2900    5.3000    5.3100    5.3200    5.3300    5.3400    5.3500
5.3600    5.3700    5.3800    5.3900    5.4000    5.4100    5.4200    5.4300
5.4400    5.4500    5.4600    5.4700    5.4800    5.4900    5.5000    5.5100
5.5200    5.5300    5.5400    5.5500    5.5600    5.5700    5.5800    5.5900
5.6000    5.6100    5.6200    5.6300    5.6400    5.6500    5.6600    5.6700
5.6800    5.6900    5.7000    5.7100    5.7200    5.7300    5.7400    5.7500
5.7600    5.7700    5.7800    5.7900    5.8000    5.8100    5.8200    5.8300
5.8400    5.8500    5.8600    5.8700    5.8800    5.8900    5.9000    5.9100
5.9200    5.9300    5.9400    5.9500    5.9600    5.9700    5.9800    5.9900
6.0000    6.0100    6.0200    6.0300    6.0400    6.0500    6.0600    6.0700
6.0800    6.0900    6.1000    6.1100    6.1200    6.1300    6.1400    6.1500
6.1600    6.1700    6.1800    6.1900    6.2000    6.2100    6.2200    6.2300
6.2400    6.2500    6.2600    6.2700    6.2800    6.2900    6.3000    6.3100
6.3200    6.3300    6.3400    6.3500    6.3600    6.3700    6.3800    6.3900
6.4000    6.4100    6.4200    6.4300    6.4400    6.4500    6.4600    6.4700
6.4800    6.4900    6.5000    6.5100    6.5200    6.5300    6.5400    6.5500
6.5600    6.5700    6.5800    6.5900    6.6000    6.6100    6.6200    6.6300
6.6400    6.6500    6.6600    6.6700    6.6800    6.6900    6.7000    6.7100
6.7200    6.7300    6.7400    6.7500    6.7600    6.7700    6.7800    6.7900
6.8000    6.8100    6.8200    6.8300    6.8400    6.8500    6.8600    6.8700
6.8800    6.8900    6.9000    6.9100    6.9200    6.9300    6.9400    6.9500
6.9600    6.9700    6.9800    6.9900    7.0000    7.0100    7.0200    7.0300
7.0400    7.0500    7.0600    7.0700    7.0800    7.0900    7.1000    7.1100
7.1200    7.1300    7.1400    7.1500    7.1600    7.1700    7.1800    7.1900
7.2000    7.2100    7.2200    7.2300    7.2400    7.2500    7.2600    7.2700
7.2800    7.2900    7.3000    7.3100    7.3200    7.3300    7.3400    7.3500
7.3600    7.3700    7.3800    7.3900    7.4000    7.4100    7.4200    7.4300
7.4400    7.4500    7.4600    7.4700    7.4800    7.4900    7.5000    7.5100
7.5200    7.5300    7.5400    7.5500    7.5600    7.5700
</PP_R>
<PP_RAB type="real"  size=" 758" columns="8">
0.0100    0.0100    0.0100    0.0100    0.0100    0.0100    0.0100    0.0100
0.0100    0.0100    0.0100    0.0100    0.0100    0.0100    0.0100    0.0100
0.0100    0.0100    0.0100    0.0100    0.0100    0.0100    0.0100    0.0100
0.0100    0.0100    0.0100    0.0100    0.0100    0.0100    0.0100    0.0100
0.0100    0.0100    0.0100    0.0100    0.0100    0.0100    0.0100    0.0100
0.0100    0.0100    0.0100    0.0100    0.0100    0.0100    0.0100    0.0100
0.0100    0.0100    0.0100    0.0100    0.0100    0.0100    0.0100    0.0100
0.0100    0.0100    0.0100    0.0100    0.0100    0.0100    0.0100    0.0100
0.0100    0.0100    0.0100    0.0100    0.0100    0.0100    0.0100    0.0100
0.0100    0.0100    0.0100    0.0100    0.0100    0.0100    0.0100    0.0100
0.0100    0.0100    0.0100    0.0100    0.0100    0.0100    0.0100    0.0100
0.0100    0.0100    0.0100    0.0100    0.0100    0.0100    0.0100    0.0100
0.0100    0.0100    0.0100    0.0100    0.0100    0.0100    0.0100    0.0100
0.0100    0.0100    0.0100    0.0100    0.0100    0.0100    0.0100    0.0100
0.0100    0.0100    0.0100    0.0100    0.0100    0.0100    0.0100    0.0100
0.0100    0.0100    0.0100    0.0100    0.0100    0.0100    0.0100    0.0100
0.0100    0.0100    0.0100    0.0100    0.0100    0.0100    0.0100    0.0100
0.0100    0.0100    0.0100    0.0100    0.0100    0.0100    0.0100    0.0100
0.0100    0.0100    0.0100    0.0100    0.0100    0.0100    0.0100    0.0100
0.0100    0.0100    0.0100    0.0100    0.0100    0.0100    0.0100    0.0100
0.0100    0.0100    0.0100    0.0100    0.0100    0.0100    0.0100    0.0100
0.0100    0.0100    0.0100    0.0100    0.0100    0.0100    0.0100    0.0100
0.0100    0.0100    0.0100    0.0100    0.0100    0.0100    0.0100    0.0100
0.0100    0.0100    0.0100    0.0100    0.0100    0.0100    0.0100    0.0100
0.0100    0.0100    0.0100    0.0100    0.0100    0.0100    0.0100    0.0100
0.0100    0.0100    0.0100    0.0100    0.0100    0.0100    0.0100    0.0100
0.0100    0.0100    0.0100    0.0100    0.0100    0.0100    0.0100    0.0100
0.0100    0.0100    0.0100    0.0100    0.0100    0.0100    0.0100    0.0100
0.0100    0.0100    0.0100    0.0100    0.0100    0.0100    0.0100    0.0100
0.0100    0.0100    0.0100    0.0100    0.0100    0.0100    0.0100    0.0100
0.0100    0.0100    0.0100    0.0100    0.0100    0.0100    0.0100    0.0100
0.0100    0.0100    0.0100    0.0100    0.0100    0.0100    0.0100    0.0100
0.0100    0.0100    0.0100    0.0100    0.0100    0.0100    0.0100    0.0100
0.0100    0.0100    0.0100    0.0100    0.0100    0.0100    0.0100    0.0100
0.0100    0.0100    0.0100    0.0100    0.0100    0.0100    0.0100    0.0100
0.0100    0.0100    0.0100    0.0100    0.0100    0.0100    0.0100    0.0100
0.0100    0.0100    0.0100    0.0100    0.0100    0.0100    0.0100    0.0100
0.0100    0.0100    0.0100    0.0100    0.0100    0.0100    0.0100    0.0100
0.0100    0.0100    0.0100    0.0100    0.0100    0.0100    0.0100    0.0100
0.0100    0.0100    0.0100    0.0100    0.0100    0.0100    0.0100    0.0100
0.0100    0.0100    0.0100    0.0100    0.0100    0.0100    0.0100    0.0100
0.0100    0.0100    0.0100    0.0100    0.0100    0.0100    0.0100    0.0100
0.0100    0.0100    0.0100    0.0100    0.0100    0.0100    0.0100    0.0100
0.0100    0.0100    0.0100    0.0100    0.0100    0.0100    0.0100    0.0100
0.0100    0.0100    0.0100    0.0100    0.0100    0.0100    0.0100    0.0100
0.0100    0.0100    0.0100    0.0100    0.0100    0.0100    0.0100    0.0100
0.0100    0.0100    0.0100    0.0100    0.0100    0.0100    0.0100    0.0100
0.0100    0.0100    0.0100    0.0100    0.0100    0.0100    0.0100    0.0100
0.0100    0.0100    0.0100    0.0100    0.0100    0.0100    0.0100    0.0100
0.0100    0.0100    0.0100    0.0100    0.0100    0.0100    0.0100    0.0100
0.0100    0.0100    0.0100    0.0100    0.0100    0.0100    0.0100    0.0100
0.0100    0.0100    0.0100    0.0100    0.0100    0.0100    0.0100    0.0100
0.0100    0.0100    0.0100    0.0100    0.0100    0.0100    0.0100    0.0100
0.0100    0.0100    0.0100    0.0100    0.0100    0.0100    0.0100    0.0100
0.0100    0.0100    0.0100    0.0100    0.0100    0.0100    0.0100    0.0100
0.0100    0.0100    0.0100    0.0100    0.0100    0.0100    0.0100    0.0100
0.0100    0.0100    0.0100    0.0100    0.0100    0.0100    0.0100    0.0100
0.0100    0.0100    0.0100    0.0100    0.0100    0.0100    0.0100    0.0100
0.0100    0.0100    0.0100    0.0100    0.0100    0.0100    0.0100    0.0100
0.0100    0.0100    0.0100    0.0100    0.0100    0.0100    0.0100    0.0100
0.0100    0.0100    0.0100    0.0100    0.0100    0.0100    0.0100    0.0100
0.0100    0.0100    0.0100    0.0100    0.0100    0.0100    0.0100    0.0100
0.0100    0.0100    0.0100    0.0100    0.0100    0.0100    0.0100    0.0100
0.0100    0.0100    0.0100    0.0100    0.0100    0.0100    0.0100    0.0100
0.0100    0.0100    0.0100    0.0100    0.0100    0.0100    0.0100    0.0100
0.0100    0.0100    0.0100    0.0100    0.0100    0.0100    0.0100    0.0100
0.0100    0.0100    0.0100    0.0100    0.0100    0.0100    0.0100    0.0100
0.0100    0.0100    0.0100    0.0100    0.0100    0.0100    0.0100    0.0100
0.0100    0.0100    0.0100    0.0100    0.0100    0.0100    0.0100    0.0100
0.0100    0.0100    0.0100    0.0100    0.0100    0.0100    0.0100    0.0100
0.0100    0.0100    0.0100    0.0100    0.0100    0.0100    0.0100    0.0100
0.0100    0.0100    0.0100    0.0100    0.0100    0.0100    0.0100    0.0100
0.0100    0.0100    0.0100    0.0100    0.0100    0.0100    0.0100    0.0100
0.0100    0.0100    0.0100    0.0100    0.0100    0.0100    0.0100    0.0100
0.0100    0.0100    0.0100    0.0100    0.0100    0.0100    0.0100    0.0100
0.0100    0.0100    0.0100    0.0100    0.0100    0.0100    0.0100    0.0100
0.0100    0.0100    0.0100    0.0100    0.0100    0.0100    0.0100    0.0100
0.0100    0.0100    0.0100    0.0100    0.0100    0.0100    0.0100    0.0100
0.0100    0.0100    0.0100    0.0100    0.0100    0.0100    0.0100    0.0100
0.0100    0.0100    0.0100    0.0100    0.0100    0.0100    0.0100    0.0100
0.0100    0.0100    0.0100    0.0100    0.0100    0.0100    0.0100    0.0100
0.0100    0.0100    0.0100    0.0100    0.0100    0.0100    0.0100    0.0100
0.0100    0.0100    0.0100    0.0100    0.0100    0.0100    0.0100    0.0100
0.0100    0.0100    0.0100    0.0100    0.0100    0.0100    0.0100    0.0100
0.0100    0.0100    0.0100    0.0100    0.0100    0.0100    0.0100    0.0100
0.0100    0.0100    0.0100    0.0100    0.0100    0.0100    0.0100    0.0100
0.0100    0.0100    0.0100    0.0100    0.0100    0.0100    0.0100    0.0100
0.0100    0.0100    0.0100    0.0100    0.0100    0.0100    0.0100    0.0100
0.0100    0.0100    0.0100    0.0100    0.0100    0.0100    0.0100    0.0100
0.0100    0.0100    0.0100    0.0100    0.0100    0.0100    0.0100    0.0100
0.0100    0.0100    0.0100    0.0100    0.0100    0.0100    0.0100    0.0100
0.0100    0.0100    0.0100    0.0100    0.0100    0.0100    0.0100    0.0100
0.0100    0.0100    0.0100    0.0100    0.0100    0.0100    0.0100    0.0100
0.0100    0.0100    0.0100    0.0100    0.0100    0.0100    0.0100    0.0100
0.0100    0.0100    0.0100    0.0100    0.0100    0.0100
</PP_RAB>
</PP_MESH>
<PP_LOCAL type="real"  size=" 758" columns="4">
-2.7264073606E+01   -2.7287372238E+01   -2.7346444452E+01   -2.7423561764E+01
-2.7498438361E+01   -2.7556471928E+01   -2.7590709863E+01   -2.7600197542E+01
-2.7587365270E+01   -2.7555948888E+01   -2.7509770080E+01   -2.7452183158E+01
-2.7385913336E+01   -2.7313083184E+01   -2.7235309094E+01   -2.7153809284E+01
-2.7069499117E+01   -2.6983066768E+01   -2.6895029945E+01   -2.6805777023E+01
-2.6715596385E+01   -2.6624697235E+01   -2.6533224415E+01   -2.6441269055E+01
-2.6348876345E+01   -2.6256051305E+01   -2.6162763218E+01   -2.6068949169E+01
-2.5974517091E+01   -2.5879348615E+01   -2.5783302001E+01   -2.5686215378E+01
-2.5587910441E+01   -2.5488196728E+01   -2.5386876490E+01   -2.5283750088E+01
-2.5178621764E+01   -2.5071305572E+01   -2.4961631161E+01   -2.4849449115E+01
-2.4734635528E+01   -2.4617095555E+01   -2.4496765740E+01   -2.4373615021E+01
-2.4247644407E+01   -2.4118885446E+01   -2.3987397636E+01   -2.3853265052E+01
-2.3716592446E+01   -2.3577501095E+01   -2.3436124653E+01   -2.3292605215E+01
-2.3147089752E+01   -2.2999727024E+01   -2.2850665026E+01   -2.2700048972E+01
-2.2548019794E+01   -2.2394713113E+01   -2.2240258601E+01   -2.2084779687E+01
-2.1928393508E+01   -2.1771211067E+01   -2.1613337513E+01   -2.1454872519E+01
-2.1295910695E+01   -2.1136542018E+01   -2.0976852256E+01   -2.0816923359E+01
-2.0656833824E+01   -2.0496659010E+01   -2.0336471417E+01   -2.0176340915E+01
-2.0016334941E+01   -1.9856518652E+01   -1.9696955046E+01   -1.9537705059E+01
-1.9378827638E+01   -1.9220379783E+01   -1.9062416595E+01   -1.8904991290E+01
-1.8748155220E+01   -1.8591957884E+01   -1.8436446935E+01   -1.8281668188E+01
-1.8127665627E+01   -1.7974481420E+01   -1.7822155930E+01   -1.7670727740E+01
-1.7520233671E+01   -1.7370708815E+01   -1.7222186568E+01   -1.7074698673E+01
-1.6928275258E+01   -1.6782944887E+01   -1.6638734610E+01   -1.6495670016E+01
-1.6353775285E+01   -1.6213073241E+01   -1.6073585412E+01   -1.5935332073E+01
-1.5798332299E+01   -1.5662604009E+01   -1.5528164009E+01   -1.5395028024E+01
-1.5263210730E+01   -1.5132725780E+01   -1.5003585820E+01   -1.4875802504E+01
-1.4749386500E+01   -1.4624347490E+01   -1.4500694170E+01   -1.4378434243E+01
-1.4257574404E+01   -1.4138120331E+01   -1.4020076665E+01   -1.3903446997E+01
-1.3788233848E+01   -1.3674438648E+01   -1.3562061724E+01   -1.3451102274E+01
-1.3341558354E+01   -1.3233426860E+01   -1.3126703505E+01   -1.3021382806E+01
-1.2917458054E+01   -1.2814921302E+01   -1.2713763331E+01   -1.2613973631E+01
-1.2515540181E+01   -1.2418449539E+01   -1.2322687075E+01   -1.2228238545E+01
-1.2135091006E+01   -1.2043232584E+01   -1.1952650923E+01   -1.1863331810E+01
-1.1775260888E+01   -1.1688424488E+01   -1.1602810577E+01   -1.1518407892E+01
-1.1435205457E+01   -1.1353192695E+01   -1.1272359211E+01   -1.1192694626E+01
-1.1114188300E+01   -1.1036829254E+01   -1.0960605836E+01   -1.0885506119E+01
-1.0811518634E+01   -1.0738630135E+01   -1.0666824383E+01   -1.0596070847E+01
-1.0526323057E+01   -1.0457527644E+01   -1.0389633327E+01   -1.0322609116E+01
-1.0256438502E+01   -1.0191108327E+01   -1.0126606912E+01   -1.0062917812E+01
-1.0000024238E+01   -9.9379118174E+00   -9.8765663239E+00   -9.8159735562E+00
-9.7561197243E+00   -9.6969914007E+00   -9.6385754750E+00   -9.5808591488E+00
-9.5238299290E+00   -9.4674756181E+00   -9.4117843058E+00   -9.3567443604E+00
-9.3023444206E+00   -9.2485733878E+00   -9.1954204186E+00   -9.1428749174E+00
-9.0909265295E+00   -9.0395651342E+00   -8.9887808380E+00   -8.9385639689E+00
-8.8889050696E+00   -8.8397948917E+00   -8.7912243902E+00   -8.7431847179E+00
-8.6956672198E+00   -8.6486634280E+00   -8.6021650569E+00   -8.5561639979E+00
-8.5106523151E+00   -8.4656222405E+00   -8.4210661697E+00   -8.3769766574E+00
-8.3333464136E+00   -8.2901682993E+00   -8.2474353226E+00   -8.2051406353E+00
-8.1632775286E+00   -8.1218394304E+00   -8.0808199008E+00   -8.0402126298E+00
-8.0000114335E+00   -7.9602102508E+00   -7.9208031411E+00   -7.8817842804E+00
-7.8431479591E+00   -7.8048885791E+00   -7.7670006509E+00   -7.7294787910E+00
-7.6923177196E+00   -7.6555122578E+00   -7.6190573255E+00   -7.5829479388E+00
-7.5471792078E+00   -7.5117463346E+00   -7.4766446108E+00   -7.4418694157E+00
-7.4074162141E+00   -7.3732805546E+00   -7.3394580672E+00   -7.3059444619E+00
-7.2727355267E+00   -7.2398271256E+00   -7.2072151975E+00   -7.1748957540E+00
-7.1428648776E+00   -7.1111187210E+00   -7.0796535047E+00   -7.0484655157E+00
-7.0175511063E+00   -6.9869066925E+00   -6.9565287526E+00   -6.9264138260E+00
-6.8965585115E+00   -6.8669594666E+00   -6.8376134057E+00   -6.8085170992E+00
-6.7796673723E+00   -6.7510611038E+00   -6.7226952249E+00   -6.6945667180E+00
-6.6666726161E+00   -6.6390100012E+00   -6.6115760038E+00   -6.5843678012E+00
-6.5573826175E+00   -6.5306177218E+00   -6.5040704276E+00   -6.4777380920E+00
-6.4516181147E+00   -6.4257079371E+00   -6.4000050418E+00   -6.3745069511E+00
-6.3492112271E+00   -6.3241154700E+00   -6.2992173181E+00   -6.2745144466E+00
-6.2500045671E+00   -6.2256854267E+00   -6.2015548077E+00   -6.1776105262E+00
-6.1538504323E+00   -6.1302724089E+00   -6.1068743713E+00   -6.0836542663E+00
-6.0606100720E+00   -6.0377397969E+00   -6.0150414797E+00   -5.9925131881E+00
-5.9701530189E+00   -5.9479590971E+00   -5.9259295756E+00   -5.9040626344E+00
-5.8823564804E+00   -5.8608093466E+00   -5.8394194920E+00   -5.8181852008E+00
-5.7971047821E+00   -5.7761765693E+00   -5.7553989201E+00   -5.7347702154E+00
-5.7142888594E+00   -5.6939532790E+00   -5.6737619233E+00   -5.6537132635E+00
-5.6338057922E+00   -5.6140380233E+00   -5.5944084913E+00   -5.5749157512E+00
-5.5555583782E+00   -5.5363349669E+00   -5.5172441317E+00   -5.4982845057E+00
-5.4794547408E+00   -5.4607535075E+00   -5.4421794942E+00   -5.4237314072E+00
-5.4054079700E+00   -5.3872079237E+00   -5.3691300260E+00   -5.3511730514E+00
-5.3333357907E+00   -5.3156170506E+00   -5.2980156537E+00   -5.2805304384E+00
-5.2631602579E+00   -5.2459039810E+00   -5.2287604907E+00   -5.2117286850E+00
-5.1948074760E+00   -5.1779957900E+00   -5.1612925670E+00   -5.1446967608E+00
-5.1282073385E+00   -5.1118232804E+00   -5.0955435800E+00   -5.0793672432E+00
-5.0632932887E+00   -5.0473207477E+00   -5.0314486634E+00   -5.0156760911E+00
-5.0000020977E+00   -4.9844257621E+00   -4.9689461743E+00   -4.9535624358E+00
-4.9382736590E+00   -4.9230789674E+00   -4.9079774952E+00   -4.8929683870E+00
-4.8780507982E+00   -4.8632238941E+00   -4.8484868504E+00   -4.8338388525E+00
-4.8192790960E+00   -4.8048067857E+00   -4.7904211362E+00   -4.7761213715E+00
-4.7619067247E+00   -4.7477764381E+00   -4.7337297629E+00   -4.7197659592E+00
-4.7058842958E+00   -4.6920840499E+00   -4.6783645074E+00   -4.6647249625E+00
-4.6511647174E+00   -4.6376830827E+00   -4.6242793766E+00   -4.6109529255E+00
-4.5977030633E+00   -4.5845291317E+00   -4.5714304799E+00   -4.5584064644E+00
-4.5454564491E+00   -4.5325798051E+00   -4.5197759107E+00   -4.5070441509E+00
-4.4943839180E+00   -4.4817946108E+00   -4.4692756351E+00   -4.4568264030E+00
-4.4444463333E+00   -4.4321348514E+00   -4.4198913888E+00   -4.4077153833E+00
-4.3956062790E+00   -4.3835635260E+00   -4.3715865804E+00   -4.3596749043E+00
-4.3478279656E+00   -4.3360452379E+00   -4.3243262007E+00   -4.3126703389E+00
-4.3010771430E+00   -4.2895461090E+00   -4.2780767383E+00   -4.2666685376E+00
-4.2553210187E+00   -4.2440336989E+00   -4.2328061004E+00   -4.2216377503E+00
-4.2105281810E+00   -4.1994769297E+00   -4.1884835382E+00   -4.1775475535E+00
-4.1666685269E+00   -4.1558460148E+00   -4.1450795778E+00   -4.1343687812E+00
-4.1237131949E+00   -4.1131123931E+00   -4.1025659543E+00   -4.0920734614E+00
-4.0816345015E+00   -4.0712486661E+00   -4.0609155506E+00   -4.0506347546E+00
-4.0404058818E+00   -4.0302285397E+00   -4.0201023400E+00   -4.0100268981E+00
-4.0000018334E+00   -3.9900267689E+00   -3.9801013315E+00   -3.9702251518E+00
-3.9603978640E+00   -3.9506191060E+00   -3.9408885191E+00   -3.9312057482E+00
-3.9215704419E+00   -3.9119822519E+00   -3.9024408335E+00   -3.8929458452E+00
-3.8834969491E+00   -3.8740938102E+00   -3.8647360971E+00   -3.8554234813E+00
-3.8461556376E+00   -3.8369322439E+00   -3.8277529812E+00   -3.8186175336E+00
-3.8095255880E+00   -3.8004768344E+00   -3.7914709659E+00   -3.7825076782E+00
-3.7735866701E+00   -3.7647076432E+00   -3.7558703017E+00   -3.7470743529E+00
-3.7383195065E+00   -3.7296054753E+00   -3.7209319743E+00   -3.7122987215E+00
-3.7037054374E+00   -3.6951518451E+00   -3.6866376702E+00   -3.6781626408E+00
-3.6697264877E+00   -3.6613289438E+00   -3.6529697449E+00   -3.6446486288E+00
-3.6363653359E+00   -3.6281196089E+00   -3.6199111928E+00   -3.6117398349E+00
-3.6036052849E+00   -3.5955072946E+00   -3.5874456181E+00   -3.5794200117E+00
-3.5714302338E+00   -3.5634760451E+00   -3.5555572082E+00   -3.5476734881E+00
-3.5398246517E+00   -3.5320104679E+00   -3.5242307077E+00   -3.5164851443E+00
-3.5087735525E+00   -3.5010957095E+00   -3.4934513941E+00   -3.4858403872E+00
-3.4782624716E+00   -3.4707174320E+00   -3.4632050548E+00   -3.4557251284E+00
-3.4482774430E+00   -3.4408617907E+00   -3.4334779651E+00   -3.4261257619E+00
-3.4188049783E+00   -3.4115154133E+00   -3.4042568678E+00   -3.3970291440E+00
-3.3898320461E+00   -3.3826653799E+00   -3.3755289528E+00   -3.3684225737E+00
-3.3613460534E+00   -3.3542992039E+00   -3.3472818391E+00   -3.3402937744E+00
-3.3333348266E+00   -3.3264048140E+00   -3.3195035567E+00   -3.3126308759E+00
-3.3057865947E+00   -3.2989705372E+00   -3.2921825293E+00   -3.2854223983E+00
-3.2786899726E+00   -3.2719850824E+00   -3.2653075591E+00   -3.2586572355E+00
-3.2520339456E+00   -3.2454375251E+00   -3.2388678107E+00   -3.2323246405E+00
-3.2258078541E+00   -3.2193172922E+00   -3.2128527967E+00   -3.2064142110E+00
-3.2000013797E+00   -3.1936141484E+00   -3.1872523643E+00   -3.1809158755E+00
-3.1746045315E+00   -3.1683181829E+00   -3.1620566815E+00   -3.1558198803E+00
-3.1496076334E+00   -3.1434197961E+00   -3.1372562248E+00   -3.1311167771E+00
-3.1250013116E+00   -3.1189096880E+00   -3.1128417673E+00   -3.1067974112E+00
-3.1007764829E+00   -3.0947788464E+00   -3.0888043667E+00   -3.0828529101E+00
-3.0769243437E+00   -3.0710185357E+00   -3.0651353553E+00   -3.0592746727E+00
-3.0534363591E+00   -3.0476202868E+00   -3.0418263287E+00   -3.0360543591E+00
-3.0303042530E+00   -3.0245758864E+00   -3.0188691363E+00   -3.0131838806E+00
-3.0075199980E+00   -3.0018773682E+00   -2.9962558719E+00   -2.9906553905E+00
-2.9850758064E+00   -2.9795170029E+00   -2.9739788641E+00   -2.9684612750E+00
-2.9629641213E+00   -2.9574872899E+00   -2.9520306682E+00   -2.9465941445E+00
-2.9411776081E+00   -2.9357809488E+00   -2.9304040576E+00   -2.9250468259E+00
-2.9197091461E+00   -2.9143909115E+00   -2.9090920158E+00   -2.9038123540E+00
-2.8985518213E+00   -2.8933103141E+00   -2.8880877293E+00   -2.8828839646E+00
-2.8776989185E+00   -2.8725324901E+00   -2.8673845795E+00   -2.8622550871E+00
-2.8571439143E+00   -2.8520509632E+00   -2.8469761365E+00   -2.8419193376E+00
-2.8368804706E+00   -2.8318594403E+00   -2.8268561522E+00   -2.8218705123E+00
-2.8169024276E+00   -2.8119518053E+00   -2.8070185537E+00   -2.8021025814E+00
-2.7972037979E+00   -2.7923221131E+00   -2.7874574376E+00   -2.7826096828E+00
-2.7777787604E+00   -2.7729645830E+00   -2.7681670637E+00   -2.7633861162E+00
-2.7586216546E+00   -2.7538735940E+00   -2.7491418498E+00   -2.7444263379E+00
-2.7397269751E+00   -2.7350436785E+00   -2.7303763659E+00   -2.7257249555E+00
-2.7210893663E+00   -2.7164695176E+00   -2.7118653294E+00   -2.7072767223E+00
-2.7027036172E+00   -2.6981459358E+00   -2.6936036001E+00   -2.6890765327E+00
-2.6845646569E+00   -2.6800678963E+00   -2.6755861750E+00   -2.6711194177E+00
-2.6666675497E+00   -2.6622304965E+00   -2.6578081844E+00   -2.6534005400E+00
-2.6490074904E+00   -2.6446289634E+00   -2.6402648870E+00   -2.6359151897E+00
-2.6315798007E+00   -2.6272586494E+00   -2.6229516658E+00   -2.6186587804E+00
-2.6143799241E+00   -2.6101150282E+00   -2.6058640244E+00   -2.6016268451E+00
-2.5974034228E+00   -2.5931936908E+00   -2.5889975825E+00   -2.5848150319E+00
-2.5806459735E+00   -2.5764903420E+00   -2.5723480726E+00   -2.5682191011E+00
-2.5641033635E+00   -2.5600007963E+00   -2.5559113364E+00   -2.5518349210E+00
-2.5477714878E+00   -2.5437209749E+00   -2.5396833209E+00   -2.5356584645E+00
-2.5316463450E+00   -2.5276469020E+00   -2.5236600757E+00   -2.5196858062E+00
-2.5157240345E+00   -2.5117747017E+00   -2.5078377492E+00   -2.5039131190E+00
-2.5000007533E+00   -2.4961005947E+00   -2.4922125861E+00   -2.4883366709E+00
-2.4844727927E+00   -2.4806208956E+00   -2.4767809239E+00   -2.4729528222E+00
-2.4691365358E+00   -2.4653320098E+00   -2.4615391901E+00   -2.4577580228E+00
-2.4539884541E+00   -2.4502304309E+00   -2.4464839001E+00   -2.4427488091E+00
-2.4390251056E+00   -2.4353127377E+00   -2.4316116535E+00   -2.4279218018E+00
-2.4242431315E+00   -2.4205755918E+00   -2.4169191324E+00   -2.4132737030E+00
-2.4096392539E+00   -2.4060157355E+00   -2.4024030985E+00   -2.3988012941E+00
-2.3952102735E+00   -2.3916299885E+00   -2.3880603909E+00   -2.3845014329E+00
-2.3809530672E+00   -2.3774152464E+00   -2.3738879236E+00   -2.3703710522E+00
-2.3668645857E+00   -2.3633684781E+00   -2.3598826836E+00   -2.3564071565E+00