<UPF version="2.0.1">
<PP_INFO>

This pseudopotential file has been produced using the code
ONCVPSP  (Optimized Norm-Conservinng Vanderbilt PSeudopotential)
fully-relativistic version 3.3.0 08/16/2017 by D. R. Hamann
The code is available through a link at URL www.mat-simresearch.com.
Documentation with the package provides a full discription of the
input data below.


While it is not required under the terms of the GNU GPL, it is
suggested that you cite D. R. Hamann, Phys. Rev. B 88, 085117 (2013)
in any publication using these pseudopotentials.

<PP_INPUTFILE>
# ATOM AND REFERENCE CONFIGURATION
# atsym  z   nc   nv     iexc    psfile
O  8.00    1    2 -116133      upf
#
#   n    l    f        energy (Ha)
1    0    2.00
2    0    2.00
2    1    4.00
#
# PSEUDOPOTENTIAL AND OPTIMIZATION
# lmax
2
#
#   l,   rc,     ep,   ncon, nbas, qcut
0   1.25000  -0.87493    4    8   8.50000
1   1.35000  -0.32933    4    8   9.40000
2   1.25000   0.10000    4    8   6.00000
#
# LOCAL POTENTIAL
# lloc, lpopt,  rc(5),   dvloc0
4    5   1.20000      0.00000
#
# VANDERBILT-KLEINMAN-BYLANDER PROJECTORs
# l, nproj, debl
0    2   1.00000
1    2   0.99955
2    1   1.00000
#
# MODEL CORE CHARGE
# icmod, fcfact, rcfact
3   4.00000   1.50000
#
# LOG DERIVATIVE ANALYSIS
# epsh1, epsh2, depsh
-12.00   12.00    0.02
#
# OUTPUT GRID
# rlmax, drl
6.00    0.01
#
# TEST CONFIGURATIONS
# ncnf
0
# nvcnf
#   n    l    f
</PP_INPUTFILE>
</PP_INFO>
<!--                               -->
<!-- END OF HUMAN READABLE SECTION -->
<!--                               -->
<PP_HEADER
generated="Generated using ONCVPSP code by D. R. Hamann"
author="anonymous"
date="180509"
comment=""
element="O "
pseudo_type="NC"
relativistic="full"
is_ultrasoft="F"
is_paw="F"
is_coulomb="F"
has_so="T"
has_wfc="F"
has_gipaw="F"
core_correction="T"
functional="PBESOL"
z_valence="    6.00"
total_psenergy="  -3.14553679009E+01"
rho_cutoff="   9.35000000000E+00"
l_max="2"
l_local="-1"
mesh_size="   936"
number_of_wfc="3"
number_of_proj="8"/>
<PP_MESH>
<PP_R type="real"  size=" 936" columns="8">
0.0000    0.0100    0.0200    0.0300    0.0400    0.0500    0.0600    0.0700
0.0800    0.0900    0.1000    0.1100    0.1200    0.1300    0.1400    0.1500
0.1600    0.1700    0.1800    0.1900    0.2000    0.2100    0.2200    0.2300
0.2400    0.2500    0.2600    0.2700    0.2800    0.2900    0.3000    0.3100
0.3200    0.3300    0.3400    0.3500    0.3600    0.3700    0.3800    0.3900
0.4000    0.4100    0.4200    0.4300    0.4400    0.4500    0.4600    0.4700
0.4800    0.4900    0.5000    0.5100    0.5200    0.5300    0.5400    0.5500
0.5600    0.5700    0.5800    0.5900    0.6000    0.6100    0.6200    0.6300
0.6400    0.6500    0.6600    0.6700    0.6800    0.6900    0.7000    0.7100
0.7200    0.7300    0.7400    0.7500    0.7600    0.7700    0.7800    0.7900
0.8000    0.8100    0.8200    0.8300    0.8400    0.8500    0.8600    0.8700
0.8800    0.8900    0.9000    0.9100    0.9200    0.9300    0.9400    0.9500
0.9600    0.9700    0.9800    0.9900    1.0000    1.0100    1.0200    1.0300
1.0400    1.0500    1.0600    1.0700    1.0800    1.0900    1.1000    1.1100
1.1200    1.1300    1.1400    1.1500    1.1600    1.1700    1.1800    1.1900
1.2000    1.2100    1.2200    1.2300    1.2400    1.2500    1.2600    1.2700
1.2800    1.2900    1.3000    1.3100    1.3200    1.3300    1.3400    1.3500
1.3600    1.3700    1.3800    1.3900    1.4000    1.4100    1.4200    1.4300
1.4400    1.4500    1.4600    1.4700    1.4800    1.4900    1.5000    1.5100
1.5200    1.5300    1.5400    1.5500    1.5600    1.5700    1.5800    1.5900
1.6000    1.6100    1.6200    1.6300    1.6400    1.6500    1.6600    1.6700
1.6800    1.6900    1.7000    1.7100    1.7200    1.7300    1.7400    1.7500
1.7600    1.7700    1.7800    1.7900    1.8000    1.8100    1.8200    1.8300
1.8400    1.8500    1.8600    1.8700    1.8800    1.8900    1.9000    1.9100
1.9200    1.9300    1.9400    1.9500    1.9600    1.9700    1.9800    1.9900
2.0000    2.0100    2.0200    2.0300    2.0400    2.0500    2.0600    2.0700
2.0800    2.0900    2.1000    2.1100    2.1200    2.1300    2.1400    2.1500
2.1600    2.1700    2.1800    2.1900    2.2000    2.2100    2.2200    2.2300
2.2400    2.2500    2.2600    2.2700    2.2800    2.2900    2.3000    2.3100
2.3200    2.3300    2.3400    2.3500    2.3600    2.3700    2.3800    2.3900
2.4000    2.4100    2.4200    2.4300    2.4400    2.4500    2.4600    2.4700
2.4800    2.4900    2.5000    2.5100    2.5200    2.5300    2.5400    2.5500
2.5600    2.5700    2.5800    2.5900    2.6000    2.6100    2.6200    2.6300
2.6400    2.6500    2.6600    2.6700    2.6800    2.6900    2.7000    2.7100
2.7200    2.7300    2.7400    2.7500    2.7600    2.7700    2.7800    2.7900
2.8000    2.8100    2.8200    2.8300    2.8400    2.8500    2.8600    2.8700
2.8800    2.8900    2.9000    2.9100    2.9200    2.9300    2.9400    2.9500
2.9600    2.9700    2.9800    2.9900    3.0000    3.0100    3.0200    3.0300
3.0400    3.0500    3.0600    3.0700    3.0800    3.0900    3.1000    3.1100
3.1200    3.1300    3.1400    3.1500    3.1600    3.1700    3.1800    3.1900
3.2000    3.2100    3.2200    3.2300    3.2400    3.2500    3.2600    3.2700
3.2800    3.2900    3.3000    3.3100    3.3200    3.3300    3.3400    3.3500
3.3600    3.3700    3.3800    3.3900    3.4000    3.4100    3.4200    3.4300
3.4400    3.4500    3.4600    3.4700    3.4800    3.4900    3.5000    3.5100
3.5200    3.5300    3.5400    3.5500    3.5600    3.5700    3.5800    3.5900
3.6000    3.6100    3.6200    3.6300    3.6400    3.6500    3.6600    3.6700
3.6800    3.6900    3.7000    3.7100    3.7200    3.7300    3.7400    3.7500
3.7600    3.7700    3.7800    3.7900    3.8000    3.8100    3.8200    3.8300
3.8400    3.8500    3.8600    3.8700    3.8800    3.8900    3.9000    3.9100
3.9200    3.9300    3.9400    3.9500    3.9600    3.9700    3.9800    3.9900
4.0000    4.0100    4.0200    4.0300    4.0400    4.0500    4.0600    4.0700
4.0800    4.0900    4.1000    4.1100    4.1200    4.1300    4.1400    4.1500
4.1600    4.1700    4.1800    4.1900    4.2000    4.2100    4.2200    4.2300
4.2400    4.2500    4.2600    4.2700    4.2800    4.2900    4.3000    4.3100
4.3200    4.3300    4.3400    4.3500    4.3600    4.3700    4.3800    4.3900
4.4000    4.4100    4.4200    4.4300    4.4400    4.4500    4.4600    4.4700
4.4800    4.4900    4.5000    4.5100    4.5200    4.5300    4.5400    4.5500
4.5600    4.5700    4.5800    4.5900    4.6000    4.6100    4.6200    4.6300
4.6400    4.6500    4.6600    4.6700    4.6800    4.6900    4.7000    4.7100
4.7200    4.7300    4.7400    4.7500    4.7600    4.7700    4.7800    4.7900
4.8000    4.8100    4.8200    4.8300    4.8400    4.8500    4.8600    4.8700
4.8800    4.8900    4.9000    4.9100    4.9200    4.9300    4.9400    4.9500
4.9600    4.9700    4.9800    4.9900    5.0000    5.0100    5.0200    5.0300
5.0400    5.0500    5.0600    5.0700    5.0800    5.0900    5.1000    5.1100
5.1200    5.1300    5.1400    5.1500    5.1600    5.1700    5.1800    5.1900
5.2000    5.2100    5.2200    5.2300    5.2400    5.2500    5.2600    5.2700
5.2800    5.2900    5.3000    5.3100    5.3200    5.3300    5.3400    5.3500
5.3600    5.3700    5.3800    5.3900    5.4000    5.4100    5.4200    5.4300
5.4400    5.4500    5.4600    5.4700    5.4800    5.4900    5.5000    5.5100
5.5200    5.5300    5.5400    5.5500    5.5600    5.5700    5.5800    5.5900
5.6000    5.6100    5.6200    5.6300    5.6400    5.6500    5.6600    5.6700
5.6800    5.6900    5.7000    5.7100    5.7200    5.7300    5.7400    5.7500
5.7600    5.7700    5.7800    5.7900    5.8000    5.8100    5.8200    5.8300
5.8400    5.8500    5.8600    5.8700    5.8800    5.8900    5.9000    5.9100
5.9200    5.9300    5.9400    5.9500    5.9600    5.9700    5.9800    5.9900
6.0000    6.0100    6.0200    6.0300    6.0400    6.0500    6.0600    6.0700
6.0800    6.0900    6.1000    6.1100    6.1200    6.1300    6.1400    6.1500
6.1600    6.1700    6.1800    6.1900    6.2000    6.2100    6.2200    6.2300
6.2400    6.2500    6.2600    6.2700    6.2800    6.2900    6.3000    6.3100
6.3200    6.3300    6.3400    6.3500    6.3600    6.3700    6.3800    6.3900
6.4000    6.4100    6.4200    6.4300    6.4400    6.4500    6.4600    6.4700
6.4800    6.4900    6.5000    6.5100    6.5200    6.5300    6.5400    6.5500
6.5600    6.5700    6.5800    6.5900    6.6000    6.6100    6.6200    6.6300
6.6400    6.6500    6.6600    6.6700    6.6800    6.6900    6.7000    6.7100
6.7200    6.7300    6.7400    6.7500    6.7600    6.7700    6.7800    6.7900
6.8000    6.8100    6.8200    6.8300    6.8400    6.8500    6.8600    6.8700
6.8800    6.8900    6.9000    6.9100    6.9200    6.9300    6.9400    6.9500
6.9600    6.9700    6.9800    6.9900    7.0000    7.0100    7.0200    7.0300
7.0400    7.0500    7.0600    7.0700    7.0800    7.0900    7.1000    7.1100
7.1200    7.1300    7.1400    7.1500    7.1600    7.1700    7.1800    7.1900
7.2000    7.2100    7.2200    7.2300    7.2400    7.2500    7.2600    7.2700
7.2800    7.2900    7.3000    7.3100    7.3200    7.3300    7.3400    7.3500
7.3600    7.3700    7.3800    7.3900    7.4000    7.4100    7.4200    7.4300
7.4400    7.4500    7.4600    7.4700    7.4800    7.4900    7.5000    7.5100
7.5200    7.5300    7.5400    7.5500    7.5600    7.5700    7.5800    7.5900
7.6000    7.6100    7.6200    7.6300    7.6400    7.6500    7.6600    7.6700
7.6800    7.6900    7.7000    7.7100    7.7200    7.7300    7.7400    7.7500
7.7600    7.7700    7.7800    7.7900    7.8000    7.8100    7.8200    7.8300
7.8400    7.8500    7.8600    7.8700    7.8800    7.8900    7.9000    7.9100
7.9200    7.9300    7.9400    7.9500    7.9600    7.9700    7.9800    7.9900
8.0000    8.0100    8.0200    8.0300    8.0400    8.0500    8.0600    8.0700
8.0800    8.0900    8.1000    8.1100    8.1200    8.1300    8.1400    8.1500
8.1600    8.1700    8.1800    8.1900    8.2000    8.2100    8.2200    8.2300
8.2400    8.2500    8.2600    8.2700    8.2800    8.2900    8.3000    8.3100
8.3200    8.3300    8.3400    8.3500    8.3600    8.3700    8.3800    8.3900
8.4000    8.4100    8.4200    8.4300    8.4400    8.4500    8.4600    8.4700
8.4800    8.4900    8.5000    8.5100    8.5200    8.5300    8.5400    8.5500
8.5600    8.5700    8.5800    8.5900    8.6000    8.6100    8.6200    8.6300
8.6400    8.6500    8.6600    8.6700    8.6800    8.6900    8.7000    8.7100
8.7200    8.7300    8.7400    8.7500    8.7600    8.7700    8.7800    8.7900
8.8000    8.8100    8.8200    8.8300    8.8400    8.8500    8.8600    8.8700
8.8800    8.8900    8.9000    8.9100    8.9200    8.9300    8.9400    8.9500
8.9600    8.9700    8.9800    8.9900    9.0000    9.0100    9.0200    9.0300
9.0400    9.0500    9.0600    9.0700    9.0800    9.0900    9.1000    9.1100
9.1200    9.1300    9.1400    9.1500    9.1600    9.1700    9.1800    9.1900
9.2000    9.2100    9.2200    9.2300    9.2400    9.2500    9.2600    9.2700
9.2800    9.2900    9.3000    9.3100    9.3200    9.3300    9.3400    9.3500
</PP_R>
<PP_RAB type="real"  size=" 936" columns="8">
0.0100    0.0100    0.0100    0.0100    0.0100    0.0100    0.0100    0.0100
0.0100    0.0100    0.0100    0.0100    0.0100    0.0100    0.0100    0.0100
0.0100    0.0100    0.0100    0.0100    0.0100    0.0100    0.0100    0.0100
0.0100    0.0100    0.0100    0.0100    0.0100    0.0100    0.0100    0.0100
0.0100    0.0100    0.0100    0.0100    0.0100    0.0100    0.0100    0.0100
0.0100    0.0100    0.0100    0.0100    0.0100    0.0100    0.0100    0.0100
0.0100    0.0100    0.0100    0.0100    0.0100    0.0100    0.0100    0.0100
0.0100    0.0100    0.0100    0.0100    0.0100    0.0100    0.0100    0.0100
0.0100    0.0100    0.0100    0.0100    0.0100    0.0100    0.0100    0.0100
0.0100    0.0100    0.0100    0.0100    0.0100    0.0100    0.0100    0.0100
0.0100    0.0100    0.0100    0.0100    0.0100    0.0100    0.0100    0.0100
0.0100    0.0100    0.0100    0.0100    0.0100    0.0100    0.0100    0.0100
0.0100    0.0100    0.0100    0.0100    0.0100    0.0100    0.0100    0.0100
0.0100    0.0100    0.0100    0.0100    0.0100    0.0100    0.0100    0.0100
0.0100    0.0100    0.0100    0.0100    0.0100    0.0100    0.0100    0.0100
0.0100    0.0100    0.0100    0.0100    0.0100    0.0100    0.0100    0.0100
0.0100    0.0100    0.0100    0.0100    0.0100    0.0100    0.0100    0.0100
0.0100    0.0100    0.0100    0.0100    0.0100    0.0100    0.0100    0.0100
0.0100    0.0100    0.0100    0.0100    0.0100    0.0100    0.0100    0.0100
0.0100    0.0100    0.0100    0.0100    0.0100    0.0100    0.0100    0.0100
0.0100    0.0100    0.0100    0.0100    0.0100    0.0100    0.0100    0.0100
0.0100    0.0100    0.0100    0.0100    0.0100    0.0100    0.0100    0.0100
0.0100    0.0100    0.0100    0.0100    0.0100    0.0100    0.0100    0.0100
0.0100    0.0100    0.0100    0.0100    0.0100    0.0100    0.0100    0.0100
0.0100    0.0100    0.0100    0.0100    0.0100    0.0100    0.0100    0.0100
0.0100    0.0100    0.0100    0.0100    0.0100    0.0100    0.0100    0.0100
0.0100    0.0100    0.0100    0.0100    0.0100    0.0100    0.0100    0.0100
0.0100    0.0100    0.0100    0.0100    0.0100    0.0100    0.0100    0.0100
0.0100    0.0100    0.0100    0.0100    0.0100    0.0100    0.0100    0.0100
0.0100    0.0100    0.0100    0.0100    0.0100    0.0100    0.0100    0.0100
0.0100    0.0100    0.0100    0.0100    0.0100    0.0100    0.0100    0.0100
0.0100    0.0100    0.0100    0.0100    0.0100    0.0100    0.0100    0.0100
0.0100    0.0100    0.0100    0.0100    0.0100    0.0100    0.0100    0.0100
0.0100    0.0100    0.0100    0.0100    0.0100    0.0100    0.0100    0.0100
0.0100    0.0100    0.0100    0.0100    0.0100    0.0100    0.0100    0.0100
0.0100    0.0100    0.0100    0.0100    0.0100    0.0100    0.0100    0.0100
0.0100    0.0100    0.0100    0.0100    0.0100    0.0100    0.0100    0.0100
0.0100    0.0100    0.0100    0.0100    0.0100    0.0100    0.0100    0.0100
0.0100    0.0100    0.0100    0.0100    0.0100    0.0100    0.0100    0.0100
0.0100    0.0100    0.0100    0.0100    0.0100    0.0100    0.0100    0.0100
0.0100    0.0100    0.0100    0.0100    0.0100    0.0100    0.0100    0.0100
0.0100    0.0100    0.0100    0.0100    0.0100    0.0100    0.0100    0.0100
0.0100    0.0100    0.0100    0.0100    0.0100    0.0100    0.0100    0.0100
0.0100    0.0100    0.0100    0.0100    0.0100    0.0100    0.0100    0.0100
0.0100    0.0100    0.0100    0.0100    0.0100    0.0100    0.0100    0.0100
0.0100    0.0100    0.0100    0.0100    0.0100    0.0100    0.0100    0.0100
0.0100    0.0100    0.0100    0.0100    0.0100    0.0100    0.0100    0.0100
0.0100    0.0100    0.0100    0.0100    0.0100    0.0100    0.0100    0.0100
0.0100    0.0100    0.0100    0.0100    0.0100    0.0100    0.0100    0.0100
0.0100    0.0100    0.0100    0.0100    0.0100    0.0100    0.0100    0.0100
0.0100    0.0100    0.0100    0.0100    0.0100    0.0100    0.0100    0.0100
0.0100    0.0100    0.0100    0.0100    0.0100    0.0100    0.0100    0.0100
0.0100    0.0100    0.0100    0.0100    0.0100    0.0100    0.0100    0.0100
0.0100    0.0100    0.0100    0.0100    0.0100    0.0100    0.0100    0.0100
0.0100    0.0100    0.0100    0.0100    0.0100    0.0100    0.0100    0.0100
0.0100    0.0100    0.0100    0.0100    0.0100    0.0100    0.0100    0.0100
0.0100    0.0100    0.0100    0.0100    0.0100    0.0100    0.0100    0.0100
0.0100    0.0100    0.0100    0.0100    0.0100    0.0100    0.0100    0.0100
0.0100    0.0100    0.0100    0.0100    0.0100    0.0100    0.0100    0.0100
0.0100    0.0100    0.0100    0.0100    0.0100    0.0100    0.0100    0.0100
0.0100    0.0100    0.0100    0.0100    0.0100    0.0100    0.0100    0.0100
0.0100    0.0100    0.0100    0.0100    0.0100    0.0100    0.0100    0.0100
0.0100    0.0100    0.0100    0.0100    0.0100    0.0100    0.0100    0.0100
0.0100    0.0100    0.0100    0.0100    0.0100    0.0100    0.0100    0.0100
0.0100    0.0100    0.0100    0.0100    0.0100    0.0100    0.0100    0.0100
0.0100    0.0100    0.0100    0.0100    0.0100    0.0100    0.0100    0.0100
0.0100    0.0100    0.0100    0.0100    0.0100    0.0100    0.0100    0.0100
0.0100    0.0100    0.0100    0.0100    0.0100    0.0100    0.0100    0.0100
0.0100    0.0100    0.0100    0.0100    0.0100    0.0100    0.0100    0.0100
0.0100    0.0100    0.0100    0.0100    0.0100    0.0100    0.0100    0.0100
0.0100    0.0100    0.0100    0.0100    0.0100    0.0100    0.0100    0.0100
0.0100    0.0100    0.0100    0.0100    0.0100    0.0100    0.0100    0.0100
0.0100    0.0100    0.0100    0.0100    0.0100    0.0100    0.0100    0.0100
0.0100    0.0100    0.0100    0.0100    0.0100    0.0100    0.0100    0.0100
0.0100    0.0100    0.0100    0.0100    0.0100    0.0100    0.0100    0.0100
0.0100    0.0100    0.0100    0.0100    0.0100    0.0100    0.0100    0.0100
0.0100    0.0100    0.0100    0.0100    0.0100    0.0100    0.0100    0.0100
0.0100    0.0100    0.0100    0.0100    0.0100    0.0100    0.0100    0.0100
0.0100    0.0100    0.0100    0.0100    0.0100    0.0100    0.0100    0.0100
0.0100    0.0100    0.0100    0.0100    0.0100    0.0100    0.0100    0.0100
0.0100    0.0100    0.0100    0.0100    0.0100    0.0100    0.0100    0.0100
0.0100    0.0100    0.0100    0.0100    0.0100    0.0100    0.0100    0.0100
0.0100    0.0100    0.0100    0.0100    0.0100    0.0100    0.0100    0.0100
0.0100    0.0100    0.0100    0.0100    0.0100    0.0100    0.0100    0.0100
0.0100    0.0100    0.0100    0.0100    0.0100    0.0100    0.0100    0.0100
0.0100    0.0100    0.0100    0.0100    0.0100    0.0100    0.0100    0.0100
0.0100    0.0100    0.0100    0.0100    0.0100    0.0100    0.0100    0.0100
0.0100    0.0100    0.0100    0.0100    0.0100    0.0100    0.0100    0.0100
0.0100    0.0100    0.0100    0.0100    0.0100    0.0100    0.0100    0.0100
0.0100    0.0100    0.0100    0.0100    0.0100    0.0100    0.0100    0.0100
0.0100    0.0100    0.0100    0.0100    0.0100    0.0100    0.0100    0.0100
0.0100    0.0100    0.0100    0.0100    0.0100    0.0100    0.0100    0.0100
0.0100    0.0100    0.0100    0.0100    0.0100    0.0100    0.0100    0.0100
0.0100    0.0100    0.0100    0.0100    0.0100    0.0100    0.0100    0.0100
0.0100    0.0100    0.0100    0.0100    0.0100    0.0100    0.0100    0.0100
0.0100    0.0100    0.0100    0.0100    0.0100    0.0100    0.0100    0.0100
0.0100    0.0100    0.0100    0.0100    0.0100    0.0100    0.0100    0.0100
0.0100    0.0100    0.0100    0.0100    0.0100    0.0100    0.0100    0.0100
0.0100    0.0100    0.0100    0.0100    0.0100    0.0100    0.0100    0.0100
0.0100    0.0100    0.0100    0.0100    0.0100    0.0100    0.0100    0.0100
0.0100    0.0100    0.0100    0.0100    0.0100    0.0100    0.0100    0.0100
0.0100    0.0100    0.0100    0.0100    0.0100    0.0100    0.0100    0.0100
0.0100    0.0100    0.0100    0.0100    0.0100    0.0100    0.0100    0.0100
0.0100    0.0100    0.0100    0.0100    0.0100    0.0100    0.0100    0.0100
0.0100    0.0100    0.0100    0.0100    0.0100    0.0100    0.0100    0.0100
0.0100    0.0100    0.0100    0.0100    0.0100    0.0100    0.0100    0.0100
0.0100    0.0100    0.0100    0.0100    0.0100    0.0100    0.0100    0.0100
0.0100    0.0100    0.0100    0.0100    0.0100    0.0100    0.0100    0.0100
0.0100    0.0100    0.0100    0.0100    0.0100    0.0100    0.0100    0.0100
0.0100    0.0100    0.0100    0.0100    0.0100    0.0100    0.0100    0.0100
0.0100    0.0100    0.0100    0.0100    0.0100    0.0100    0.0100    0.0100
0.0100    0.0100    0.0100    0.0100    0.0100    0.0100    0.0100    0.0100
0.0100    0.0100    0.0100    0.0100    0.0100    0.0100    0.0100    0.0100
0.0100    0.0100    0.0100    0.0100    0.0100    0.0100    0.0100    0.0100
0.0100    0.0100    0.0100    0.0100    0.0100    0.0100    0.0100    0.0100
0.0100    0.0100    0.0100    0.0100    0.0100    0.0100    0.0100    0.0100
0.0100    0.0100    0.0100    0.0100    0.0100    0.0100    0.0100    0.0100
</PP_RAB>
</PP_MESH>
<PP_LOCAL type="real"  size=" 936" columns="4">
-2.0582352805E+01   -2.0581212590E+01   -2.0577804112E+01   -2.0572163748E+01
-2.0564349976E+01   -2.0554440453E+01   -2.0542528202E+01   -2.0528717220E+01
-2.0513117809E+01   -2.0495841913E+01   -2.0476998734E+01   -2.0456690812E+01
-2.0435010731E+01   -2.0412038515E+01   -2.0387839738E+01   -2.0362464321E+01
-2.0335945945E+01   -2.0308301999E+01   -2.0279533952E+01   -2.0249628060E+01
-2.0218556299E+01   -2.0186277450E+01   -2.0152738271E+01   -2.0117874681E+01
-2.0081612937E+01   -2.0043870771E+01   -2.0004558464E+01   -1.9963579859E+01
-1.9920833318E+01   -1.9876212620E+01   -1.9829607820E+01   -1.9780906090E+01
-1.9729992549E+01   -1.9676751116E+01   -1.9621065420E+01   -1.9562819777E+01
-1.9501900302E+01   -1.9438196161E+01   -1.9371601030E+01   -1.9302014772E+01
-1.9229345359E+01   -1.9153511039E+01   -1.9074442703E+01   -1.8992086394E+01
-1.8906405819E+01   -1.8817384720E+01   -1.8725028887E+01   -1.8629367625E+01
-1.8530454434E+01   -1.8428366771E+01   -1.8323204792E+01   -1.8215089079E+01
-1.8104157492E+01   -1.7990561340E+01   -1.7874461211E+01   -1.7756022767E+01
-1.7635412849E+01   -1.7512796165E+01   -1.7388332748E+01   -1.7262176258E+01
-1.7134473129E+01   -1.7005362438E+01   -1.6874976365E+01   -1.6743441037E+01
-1.6610877591E+01   -1.6477403285E+01   -1.6343132517E+01   -1.6208177678E+01
-1.6072649761E+01   -1.5936658714E+01   -1.5800313540E+01   -1.5663722174E+01
-1.5526991164E+01   -1.5390225217E+01   -1.5253526666E+01   -1.5116994887E+01
-1.4980725741E+01   -1.4844811059E+01   -1.4709338197E+01   -1.4574389708E+01
-1.4440043103E+01   -1.4306370739E+01   -1.4173439810E+01   -1.4041312431E+01
-1.3910045810E+01   -1.3779692492E+01   -1.3650300649E+01   -1.3521914405E+01
-1.3394574183E+01   -1.3268317060E+01   -1.3143177107E+01   -1.3019185724E+01
-1.2896371944E+01   -1.2774762707E+01   -1.2654383107E+01   -1.2535256595E+01
-1.2417405151E+01   -1.2300849416E+01   -1.2185608791E+01   -1.2071701499E+01
-1.1959144620E+01   -1.1847954090E+01   -1.1738144684E+01   -1.1629729967E+01
-1.1522722234E+01   -1.1417132427E+01   -1.1312970045E+01   -1.1210243040E+01
-1.1108957710E+01   -1.1009118585E+01   -1.0910728307E+01   -1.0813787518E+01
-1.0718294742E+01   -1.0624246272E+01   -1.0531636054E+01   -1.0440455584E+01
-1.0350693800E+01   -1.0262336972E+01   -1.0175368608E+01   -1.0089769387E+01
-1.0005516944E+01   -9.9225858548E+00   -9.8409494765E+00   -9.7605812670E+00
-9.6814561732E+00   -9.6035512507E+00   -9.5268497368E+00   -9.4513425893E+00
-9.3770254899E+00   -9.3038911040E+00   -9.2319243611E+00   -9.1611056825E+00
-9.0914157772E+00   -9.0228387515E+00   -8.9553573452E+00   -8.8889466328E+00
-8.8235673892E+00   -8.7591723854E+00   -8.6957146211E+00   -8.6331625469E+00
-8.5714963929E+00   -8.5107027289E+00   -8.4507662029E+00   -8.3916675245E+00
-8.3333885282E+00   -8.2759119576E+00   -8.2192220656E+00   -8.1633033916E+00
-8.1081403477E+00   -8.0537179129E+00   -8.0000215409E+00   -7.9470369827E+00
-7.8947503237E+00   -7.8431479771E+00   -7.7922166651E+00   -7.7419434104E+00
-7.6923155286E+00   -7.6433206232E+00   -7.5949465812E+00   -7.5471815703E+00
-7.5000140368E+00   -7.4534327030E+00   -7.4074265705E+00   -7.3619849175E+00
-7.3170972617E+00   -7.2727533994E+00   -7.2289435026E+00   -7.1856579571E+00
-7.1428872710E+00   -7.1006221123E+00   -7.0588531120E+00   -7.0175713053E+00
-6.9767686660E+00   -6.9364375729E+00   -6.8965706334E+00   -6.8571604549E+00
-6.8181990084E+00   -6.7796781439E+00   -6.7415901249E+00   -6.7039275176E+00
-6.6666832413E+00   -6.6298505024E+00   -6.5934225757E+00   -6.5573927834E+00
-6.5217546089E+00   -6.4865017124E+00   -6.4516278843E+00   -6.4171270414E+00
-6.3829932315E+00   -6.3492206289E+00   -6.3158035301E+00   -6.2827363514E+00
-6.2500136251E+00   -6.2176299970E+00   -6.1855802234E+00   -6.1538591678E+00
-6.1224617990E+00   -6.0913831875E+00   -6.0606185037E+00   -6.0301630150E+00
-6.0000120833E+00   -5.9701611630E+00   -5.9406057985E+00   -5.9113416218E+00
-5.8823643506E+00   -5.8536697865E+00   -5.8252538121E+00   -5.7971123900E+00
-5.7692415601E+00   -5.7416374384E+00   -5.7142962146E+00   -5.6872141508E+00
-5.6603875797E+00   -5.6338129026E+00   -5.6074865884E+00   -5.5814051714E+00
-5.5555652502E+00   -5.5299634861E+00   -5.5045966018E+00   -5.4794613796E+00
-5.4545546604E+00   -5.4298733425E+00   -5.4054143796E+00   -5.3811747806E+00
-5.3571516075E+00   -5.3333419745E+00   -5.3097430470E+00   -5.2863520403E+00
-5.2631662186E+00   -5.2401828938E+00   -5.2173994247E+00   -5.1948132157E+00
-5.1724217160E+00   -5.1502224185E+00   -5.1282128591E+00   -5.1063906156E+00
-5.0847533069E+00   -5.0632985919E+00   -5.0420241691E+00   -5.0209277753E+00
-5.0000071852E+00   -4.9792602103E+00   -4.9586846983E+00   -4.9382785325E+00
-4.9180396306E+00   -4.8979659445E+00   -4.8780554593E+00   -4.8583061930E+00
-4.8387161952E+00   -4.8192835469E+00   -4.8000063601E+00   -4.7808827766E+00
-4.7619109678E+00   -4.7430891339E+00   -4.7244155037E+00   -4.7058883335E+00
-4.6875059069E+00   -4.6692665345E+00   -4.6511685527E+00   -4.6332103238E+00
-4.6153902354E+00   -4.5977066995E+00   -4.5801581525E+00   -4.5627430548E+00
-4.5454598897E+00   -4.5283071638E+00   -4.5112834059E+00   -4.4943871670E+00
-4.4776170196E+00   -4.4609715574E+00   -4.4444493951E+00   -4.4280491678E+00
-4.4117695306E+00   -4.3956091582E+00   -4.3795667450E+00   -4.3636410041E+00
-4.3478306672E+00   -4.3321344846E+00   -4.3165512244E+00   -4.3010796724E+00
-4.2857186316E+00   -4.2704669223E+00   -4.2553233814E+00   -4.2402868622E+00
-4.2253562342E+00   -4.2105303827E+00   -4.1958082088E+00   -4.1811886287E+00
-4.1666705737E+00   -4.1522529899E+00   -4.1379348380E+00   -4.1237150929E+00
-4.1095927436E+00   -4.0955667929E+00   -4.0816362571E+00   -4.0678001659E+00
-4.0540575621E+00   -4.0404075014E+00   -4.0268490521E+00   -4.0133812951E+00
-4.0000033235E+00   -3.9867142424E+00   -3.9735131687E+00   -3.9603992313E+00
-3.9473715700E+00   -3.9344293364E+00   -3.9215716929E+00   -3.9087978128E+00
-3.8961068805E+00   -3.8834980904E+00   -3.8709706477E+00   -3.8585237677E+00
-3.8461566758E+00   -3.8338686072E+00   -3.8216588070E+00   -3.8095265296E+00
-3.7974710392E+00   -3.7854916091E+00   -3.7735875216E+00   -3.7617580684E+00
-3.7500025496E+00   -3.7383202743E+00   -3.7267105601E+00   -3.7151727330E+00
-3.7037061276E+00   -3.6923100862E+00   -3.6809839596E+00   -3.6697271063E+00
-3.6585388928E+00   -3.6474186931E+00   -3.6363658890E+00   -3.6253798696E+00
-3.6144600314E+00   -3.6036057782E+00   -3.5928165209E+00   -3.5820916775E+00
-3.5714306729E+00   -3.5608329386E+00   -3.5502979133E+00   -3.5398250419E+00
-3.5294137760E+00   -3.5190635736E+00   -3.5087738991E+00   -3.4985442231E+00
-3.4883740223E+00   -3.4782627795E+00   -3.4682099836E+00   -3.4582151293E+00
-3.4482777170E+00   -3.4383972530E+00   -3.4285732492E+00   -3.4188052229E+00
-3.4090926972E+00   -3.3994352002E+00   -3.3898322657E+00   -3.3802834326E+00
-3.3707882450E+00   -3.3613462520E+00   -3.3519570079E+00   -3.3426200719E+00
-3.3333350081E+00   -3.3241013854E+00   -3.3149187775E+00   -3.3057867628E+00
-3.2967049243E+00   -3.2876728496E+00   -3.2786901307E+00   -3.2697563643E+00
-3.2608711513E+00   -3.2520340969E+00   -3.2432448106E+00   -3.2345029062E+00
-3.2258080015E+00   -3.2171597186E+00   -3.2085576834E+00   -3.2000015260E+00
-3.1914908803E+00   -3.1830253842E+00   -3.1746046793E+00   -3.1662284110E+00
-3.1578962286E+00   -3.1496077850E+00   -3.1413627365E+00   -3.1331607433E+00
-3.1250014690E+00   -3.1168845808E+00   -3.1088097492E+00   -3.1007766482E+00
-3.0927849551E+00   -3.0848343506E+00   -3.0769245186E+00   -3.0690551462E+00
-3.0612259239E+00   -3.0534365451E+00   -3.0456867065E+00   -3.0379761077E+00
-3.0303044515E+00   -3.0226714436E+00   -3.0150767926E+00   -3.0075202103E+00
-3.0000014109E+00   -2.9925201119E+00   -2.9850760335E+00   -2.9776688984E+00
-2.9702984325E+00   -2.9629643641E+00   -2.9556664241E+00   -2.9484043464E+00
-2.9411778672E+00   -2.9339867254E+00   -2.9268306625E+00   -2.9197094223E+00
-2.9126227513E+00   -2.9055703985E+00   -2.8985521150E+00   -2.8915676547E+00
-2.8846167736E+00   -2.8776992301E+00   -2.8708147849E+00   -2.8639632011E+00
-2.8571442440E+00   -2.8503576810E+00   -2.8436032819E+00   -2.8368808185E+00
-2.8301900649E+00   -2.8235307973E+00   -2.8169027938E+00   -2.8103058349E+00
-2.8037397029E+00   -2.7972041823E+00   -2.7906990595E+00   -2.7842241229E+00
-2.7777791629E+00   -2.7713639717E+00   -2.7649783437E+00   -2.7586220749E+00
-2.7522949633E+00   -2.7459968088E+00   -2.7397274129E+00   -2.7334865792E+00
-2.7272741130E+00   -2.7210898212E+00   -2.7149335126E+00   -2.7088049977E+00
-2.7027040888E+00   -2.6966305996E+00   -2.6905843459E+00   -2.6845651447E+00
-2.6785728149E+00   -2.6726071770E+00   -2.6666680531E+00   -2.6607552667E+00
-2.6548686430E+00   -2.6490080088E+00   -2.6431731924E+00   -2.6373640236E+00
-2.6315803335E+00   -2.6258219549E+00   -2.6200887220E+00   -2.6143804706E+00
-2.6086970376E+00   -2.6030382615E+00   -2.5974039823E+00   -2.5917940412E+00
-2.5862082808E+00   -2.5806465452E+00   -2.5751086797E+00   -2.5695945309E+00
-2.5641039467E+00   -2.5586367766E+00   -2.5531928710E+00   -2.5477720817E+00
-2.5423742618E+00   -2.5369992656E+00   -2.5316469488E+00   -2.5263171679E+00
-2.5210097810E+00   -2.5157246473E+00   -2.5104616271E+00   -2.5052205819E+00
-2.5000013743E+00   -2.4948038682E+00   -2.4896279284E+00   -2.4844734210E+00
-2.4793402133E+00   -2.4742281733E+00   -2.4691371705E+00   -2.4640670753E+00
-2.4590177591E+00   -2.4539890945E+00   -2.4489809549E+00   -2.4439932151E+00
-2.4390257506E+00   -2.4340784381E+00   -2.4291511551E+00   -2.4242437803E+00
-2.4193561932E+00   -2.4144882745E+00   -2.4096399055E+00   -2.4048109689E+00